 TITLE = "Cavity_simu"
 Variables="X","Y","P","U","V","T","div"
 Zone I=          30 , J=          30 , F = POINT
   1.6666666666666663E-002   1.6666666666666663E-002   2.5449067539528718E-004   3.6100174689038357E-005  -3.6100332576137538E-005   6.9580555882614856       -9.4732259510801886E-009
   1.6666666666666663E-002   5.0000000000000003E-002   2.1482113140565781E-004   7.2823587889892546E-005  -1.4502437130595297E-004   6.9500370791795474       -7.0958271203291901E-009
   1.6666666666666663E-002   8.3333333333333329E-002   1.8025667442827679E-004   8.0956504654102322E-005  -2.9880470020300632E-004   6.9611443533163282       -7.0853563875414305E-009
   1.6666666666666663E-002  0.11666666666666665        1.5025884493135035E-004   7.6255872563279857E-005  -4.5601731339065552E-004   6.9999628170807284       -7.0728596313074377E-009
   1.6666666666666663E-002  0.15000000000000002        1.2395994787778967E-004   6.7869647825595614E-005  -6.0014306931434292E-004   7.0621464524544653       -7.0592290892998455E-009
   1.6666666666666663E-002  0.18333333333333335        1.0073382248021700E-004   5.9409178089657787E-005  -7.2742213031030685E-004   7.1381676513258574       -7.0456135387725327E-009
   1.6666666666666663E-002  0.21666666666666667        8.0211253174431054E-005   5.1788956390363538E-005  -8.3862049944045470E-004   7.2188028075733399       -7.0333940559684505E-009
   1.6666666666666663E-002  0.25000000000000000        6.2169995248911083E-005   4.4995734283047579E-005  -9.3540542440608769E-004   7.2976211215262232       -7.0241392533150482E-009
   1.6666666666666663E-002  0.28333333333333333        4.6445782167987510E-005   3.8840521732332441E-005  -1.0192419144826668E-003   7.3712948736829906       -7.0195326877520170E-009
   1.6666666666666663E-002  0.31666666666666665        3.2886766351702322E-005   3.3175283371220796E-005  -1.0912579535995628E-003   7.4388816502825206       -7.0212678826390984E-009
   1.6666666666666663E-002  0.35000000000000003        2.1337847008657293E-005   2.7908984303752215E-005  -1.1523424554775287E-003   7.5009061226919549       -7.0309116859731263E-009
   1.6666666666666663E-002  0.38333333333333336        1.1639328522332866E-005   2.2977200181866367E-005  -1.2032288746407791E-003   7.5586252641881506       -7.0497462247194609E-009
   1.6666666666666663E-002  0.41666666666666669        3.6301967316818392E-006   1.8315565906668053E-005  -1.2445218762019276E-003   7.6135581393146543       -7.0786106286420403E-009
   1.6666666666666663E-002  0.45000000000000001       -2.8487111596543642E-006   1.3845144208236446E-005  -1.2766828229232284E-003   7.6672272489061051       -7.1177731423687635E-009
   1.6666666666666663E-002  0.48333333333333334       -7.9535705471394999E-006   9.4661412538951219E-006  -1.2999943464626676E-003   7.7210297609663163       -7.1668653260290038E-009
   1.6666666666666663E-002  0.51666666666666661       -1.1839136511891482E-005   5.0556103461023787E-006  -1.3145163379253873E-003   7.7761717890740911       -7.2248979951397389E-009
   1.6666666666666663E-002  0.54999999999999993       -1.4663238400555614E-005   4.6648391504564496E-007  -1.3200386741074397E-003   7.8336222683898011       -7.2903562708820650E-009
   1.6666666666666663E-002  0.58333333333333326       -1.6594364149106665E-005  -4.4730652043791379E-006  -1.3160323370131808E-003   7.8940617888657743       -7.3613481952911758E-009
   1.6666666666666663E-002  0.61666666666666659       -1.7822608009058861E-005  -9.9596445701506524E-006  -1.3015998738573190E-003   7.9578138077931602       -7.4357718942655998E-009
   1.6666666666666663E-002  0.64999999999999991       -1.8574439532132748E-005  -1.6212557524992295E-005  -1.2754279208828825E-003   8.0247525789558427       -7.5114704911789787E-009
   1.6666666666666663E-002  0.68333333333333324       -1.9131940899215264E-005  -2.3466575298411965E-005  -1.2357490396899215E-003   8.0941861886396254       -7.5863560936723085E-009
   1.6666666666666663E-002  0.71666666666666656       -1.9857267698775578E-005  -3.1954069364512716E-005  -1.1803286491078703E-003   8.1647166482186719       -7.6584963334177386E-009
   1.6666666666666663E-002  0.75000000000000000       -2.1222960582008864E-005  -4.1866826817114891E-005  -1.1065080093372861E-003   8.2340851700572255       -7.7261662636239625E-009
   1.6666666666666663E-002  0.78333333333333333       -2.3848083232669600E-005  -5.3280470809232344E-005  -1.0113609702782484E-003   8.2990249731470538       -7.7878723079780054E-009
   1.6666666666666663E-002  0.81666666666666665       -2.8538453325778951E-005  -6.6010274835509643E-005  -8.9207048513732399E-004   8.3551769468139536       -7.8423567483748569E-009
   1.6666666666666663E-002  0.84999999999999998       -3.6325437601737190E-005  -7.9336664823972255E-005  -7.4672380766028894E-004   8.3971971856743899       -7.8885900580902280E-009
   1.6666666666666663E-002  0.88333333333333330       -4.8489560861464669E-005  -9.1464703248217422E-005  -5.7592270316055288E-004   8.4193447337646177       -7.9257571582169728E-009
   1.6666666666666663E-002  0.91666666666666663       -6.6535930817706413E-005  -9.8395140916432639E-005  -3.8606312364588495E-004   8.4171701341110019       -7.9532417682909307E-009
   1.6666666666666663E-002  0.94999999999999996       -9.2036881641225802E-005  -9.1465923538386817E-005  -1.9620232458862586E-004   8.3915616988727315       -7.9706118562977712E-009
   1.6666666666666663E-002  0.98333333333333317       -1.2610472701303618E-004  -5.2368399907016536E-005  -5.2368266946884991E-005   8.3572852788566223       -7.9776078928603389E-009
   5.0000000000000003E-002   1.6666666666666663E-002   2.5495634177067939E-004   1.5034044280174745E-004  -7.8140211651203962E-005   8.8399210262132506       -7.0936519947981114E-009
   5.0000000000000003E-002   5.0000000000000003E-002   2.1727881712649245E-004   2.9406741172320324E-004  -3.0470073792864607E-004   8.8129935165431785       -4.7209692041055851E-009
   5.0000000000000003E-002   8.3333333333333329E-002   1.8404331827579911E-004   3.3146813703420703E-004  -6.2267625883130325E-004   8.8289793072128564       -4.7130249997834328E-009
   5.0000000000000003E-002  0.11666666666666665        1.5442458790241957E-004   3.1764972036162466E-004  -9.5736951873459338E-004   8.9066516858966498       -4.7035083675095457E-009
   5.0000000000000003E-002  0.15000000000000002        1.2790967752395670E-004   2.8571983823617246E-004  -1.2724881931640100E-003   9.0349793586602072       -4.6930538569883717E-009
   5.0000000000000003E-002  0.18333333333333335        1.0420477371819251E-004   2.5058579982875054E-004  -1.5542363356573093E-003   9.1922792111350198       -4.6824791318650361E-009
   5.0000000000000003E-002  0.21666666666666667        8.3133036002270479E-005   2.1730761431486658E-004  -1.7997336367617833E-003   9.3584694496363809       -4.6727748363381560E-009
   5.0000000000000003E-002  0.25000000000000000        6.4559049985936197E-005   1.8690679252613489E-004  -2.0103788178868738E-003   9.5201116926604392       -4.6650798510641800E-009
   5.0000000000000003E-002  0.28333333333333333        4.8348544892254905E-005   1.5919046590228667E-004  -2.1888037197131168E-003   9.6706148028244883       -4.6606350410927089E-009
   5.0000000000000003E-002  0.31666666666666665        3.4354176595033752E-005   1.3377082191710996E-004  -2.3377335526811437E-003   9.8083840347806515       -4.6607091389386235E-009
   5.0000000000000003E-002  0.35000000000000003        2.2415343538792372E-005   1.1029890028108271E-004  -2.4596348949827798E-003   9.9347459461377206       -4.6664942379009977E-009
   5.0000000000000003E-002  0.38333333333333336        1.2363377127405717E-005   8.8453186691918599E-005  -2.5566147687423962E-003   10.052396529872002       -4.6789768964709821E-009
   5.0000000000000003E-002  0.41666666666666669        4.0272894733932035E-006   6.7891271748880659E-005  -2.6303738513024327E-003   10.164460125162352       -4.6988014729132388E-009
   5.0000000000000003E-002  0.45000000000000001       -2.7621881211281819E-006   4.8218251268202430E-005  -2.6821621111723292E-003   10.273996349646843       -4.7261558867861542E-009
   5.0000000000000003E-002  0.48333333333333334       -8.1711834809805821E-006   2.8973548623178776E-005  -2.7127314982539419E-003   10.383765443217085       -4.7607137896579430E-009
   5.0000000000000003E-002  0.51666666666666661       -1.2364160044602185E-005   9.6278571548172606E-006  -2.7222895602047751E-003   10.496111968527547       -4.8016561237959978E-009
   5.0000000000000003E-002  0.54999999999999993       -1.5508345108136300E-005  -1.0415652455809023E-005  -2.7104577372052260E-003   10.612881984947270       -4.8477682143078030E-009
   5.0000000000000003E-002  0.58333333333333326       -1.7781147254818285E-005  -3.1817305175087434E-005  -2.6762381045754742E-003   10.735328298764545       -4.8975804332190842E-009
   5.0000000000000003E-002  0.61666666666666659       -1.9380692538333108E-005  -5.5291480284591255E-005  -2.6179949027830812E-003   10.863981784663569       -4.9495131300772433E-009
   5.0000000000000003E-002  0.64999999999999991       -2.0539740918126569E-005  -8.1585095007514591E-005  -2.5334628975397827E-003   10.998479088280389       -5.0019981615891107E-009
   5.0000000000000003E-002  0.68333333333333324       -2.1543349416481064E-005  -1.1143200610336663E-004  -2.4198042296684312E-003   11.137343251772224       -5.0535651089159139E-009
   5.0000000000000003E-002  0.71666666666666656       -2.2750626235356568E-005  -1.4546290870483445E-004  -2.2737507734603719E-003   11.277718409425720       -5.1028924480042703E-009
   5.0000000000000003E-002  0.75000000000000000       -2.4620582074567492E-005  -1.8403612732350785E-004  -2.0918937006573460E-003   11.415068223500132       -5.1488312129491232E-009
   5.0000000000000003E-002  0.78333333333333333       -2.7741057765258245E-005  -2.2692989785764794E-004  -1.8712224430495626E-003   11.542870099255229       -5.1904094633403730E-009
   5.0000000000000003E-002  0.81666666666666665       -3.2857260458156379E-005  -2.7279099263570716E-004  -1.6100832174662716E-003   11.652394271565166       -5.2268253405984844E-009
   5.0000000000000003E-002  0.84999999999999998       -4.0891205114374770E-005  -3.1814287596009861E-004  -1.3098434029270908E-003   11.732794825472958       -5.2574343351041719E-009
   5.0000000000000003E-002  0.88333333333333330       -5.2933058715810971E-005  -3.5555640332052794E-004  -9.7774703544366531E-004   11.772063961332014       -5.2817349643213829E-009
   5.0000000000000003E-002  0.91666666666666663       -7.0167729504327884E-005  -3.7012951103036328E-004  -6.3178098577357602E-004   11.760151929690501       -5.2993551370034142E-009
   5.0000000000000003E-002  0.94999999999999996       -9.3681071290502662E-005  -3.3243268790676906E-004  -3.0894109256934495E-004   11.697250400390859       -5.3100406086081797E-009
   5.0000000000000003E-002  0.98333333333333317       -1.2412945730667043E-004  -1.8445705849481935E-004  -7.9720170120013185E-005   11.613744513386701       -5.3136463866107486E-009
   8.3333333333333329E-002   1.6666666666666663E-002   2.4938167367557687E-004   3.2054849545094951E-004  -9.2068077215866175E-005   10.616828243447870       -7.0794200883461667E-009
   8.3333333333333329E-002   5.0000000000000003E-002   2.1411756073424462E-004   6.2058174303177406E-004  -3.6223032830273879E-004   10.560756316754503       -4.7103512184482055E-009
   8.3333333333333329E-002   8.3333333333333329E-002   1.8262477866208261E-004   7.0854468827716516E-004  -7.4784600404544837E-004   10.571634039631848       -4.7012848405914021E-009
   8.3333333333333329E-002  0.11666666666666665        1.5393173643906750E-004   6.8851016911457893E-004  -1.1610900576046377E-003   10.681346380179358       -4.6901758136985716E-009
   8.3333333333333329E-002  0.15000000000000002        1.2773693865079960E-004   6.2445005171250334E-004  -1.5555623581446402E-003   10.872164981645767       -4.6776700030753959E-009
   8.3333333333333329E-002  0.18333333333333335        1.0401087934173737E-004   5.4827595931809629E-004  -1.9102349005806953E-003   11.109263842903417       -4.6646176816989016E-009
   8.3333333333333329E-002  0.21666666666666667        8.2770771235316125E-005   4.7302813975536539E-004  -2.2181485956052076E-003   11.360706371788210       -4.6520768418045755E-009
   8.3333333333333329E-002  0.25000000000000000        6.3992180314781342E-005   4.0286140700004799E-004  -2.4791788649151025E-003   11.605373554059854       -4.6413028923636412E-009
   8.3333333333333329E-002  0.28333333333333333        4.7591875961873728E-005   3.3850328847071848E-004  -2.6960217101433901E-003   11.833038380392599       -4.6337133505214290E-009
   8.3333333333333329E-002  0.31666666666666665        3.3438517584961382E-005   2.7959094921972926E-004  -2.8722251368109670E-003   12.041253552123518       -4.6308156328653260E-009
   8.3333333333333329E-002  0.35000000000000003        2.1369910911853933E-005   2.2545600973154453E-004  -3.0113013411308519E-003   12.232017179113292       -4.6340873677448713E-009
   8.3333333333333329E-002  0.38333333333333336        1.1208460173835621E-005   1.7531462383947051E-004  -3.1163403243753751E-003   12.409351337777215       -4.6448090582074109E-009
   8.3333333333333329E-002  0.41666666666666669        2.7723384928136357E-006   1.2828894132835750E-004  -3.1898406599832909E-003   12.577869026325462       -4.6638679888563739E-009
   8.3333333333333329E-002  0.45000000000000001       -4.1178854261546871E-006   8.3403134793152457E-005  -3.2336352662245471E-003   12.742038768579366       -4.6915782294255221E-009
   8.3333333333333329E-002  0.48333333333333334       -9.6367601551942384E-006   3.9585889194475661E-005  -3.2488634183396453E-003   12.905841331318495       -4.7275799343793248E-009
   8.3333333333333329E-002  0.51666666666666661       -1.3955091001569566E-005  -4.3199291256388301E-006  -3.2359702283599485E-003   13.072603987650849       -4.7708678566982590E-009
   8.3333333333333329E-002  0.54999999999999993       -1.7244273240314072E-005  -4.9542592411492062E-005  -3.1947276457939809E-003   13.244886935128770       -4.8199451656467940E-009
   8.3333333333333329E-002  0.58333333333333326       -1.9683532667987746E-005  -9.7359590013699479E-005  -3.1242783776016299E-003   13.424356649484560       -4.8730377159682259E-009
   8.3333333333333329E-002  0.61666666666666659       -2.1469948385123425E-005  -1.4906065956268597E-004  -3.0232104427511267E-003   13.611615001948937       -4.9282973344638714E-009
   8.3333333333333329E-002  0.64999999999999991       -2.2831269577480515E-005  -2.0588160357782524E-004  -2.8896770912087235E-003   13.805969822192331       -4.9839536135284912E-009
   8.3333333333333329E-002  0.68333333333333324       -2.4041598801420502E-005  -2.6888588881327500E-004  -2.7215857024318921E-003   14.005139960995937       -5.0384052789273492E-009
   8.3333333333333329E-002  0.71666666666666656       -2.5439906908292078E-005  -3.3875681775255849E-004  -2.5168917049677307E-003   14.204892246608553       -5.0902618812728728E-009
   8.3333333333333329E-002  0.75000000000000000       -2.7450881970084432E-005  -4.1543892129399787E-004  -2.2740524160914967E-003   14.398617060329510       -5.1383516955216813E-009
   8.3333333333333329E-002  0.78333333333333333       -3.0606408965557828E-005  -4.9752530881966230E-004  -1.9927258130884857E-003   14.576878546591074       -5.1817102345030897E-009
   8.3333333333333329E-002  0.81666666666666665       -3.5563264303464468E-005  -5.8121307040918068E-004  -1.6748478969113721E-003   14.727057501338557       -5.2195599491849931E-009
   8.3333333333333329E-002  0.84999999999999998       -4.3107036307463735E-005  -6.5851043758085226E-004  -1.3262984213081167E-003   14.833414647061462       -5.2512878472715796E-009
   8.3333333333333329E-002  0.88333333333333330       -5.4121988924493733E-005  -7.1410985606582195E-004  -9.5947412554018543E-004   14.878411619697463       -5.2764243113623266E-009
   8.3333333333333329E-002  0.91666666666666663       -6.9490936180740867E-005  -7.1979289124418113E-004  -5.9722369478682380E-004   14.847325012573682       -5.2946252365043689E-009
   8.3333333333333329E-002  0.94999999999999996       -8.9876479654496831E-005  -6.2408920240329332E-004  -2.7874404677536222E-004   14.740888829868291       -5.3056579893406841E-009
   8.3333333333333329E-002  0.98333333333333317       -1.1536769516168333E-004  -3.3247163643369566E-004  -6.8294230768233279E-005   14.606286291855575       -5.3093914039598067E-009
  0.11666666666666665        1.6666666666666663E-002   2.3747543144363747E-004   4.9979676875348269E-004  -8.7180431770867800E-005   12.294319128788940       -7.0616319606045530E-009
  0.11666666666666665        5.0000000000000003E-002   2.0530114607236296E-004   9.7374188001298216E-004  -3.4942698344369574E-004   12.203468998567473       -4.6971542853185833E-009
  0.11666666666666665        8.3333333333333329E-002   1.7595143153697191E-004   1.1251370091855733E-003  -7.3356407884545569E-004   12.198543126781404       -4.6865008419133547E-009
  0.11666666666666665       0.11666666666666665        1.4860441440268940E-004   1.1051556605159087E-003  -1.1535581501142663E-003   12.326858865234533       -4.6731342233374829E-009
  0.11666666666666665       0.15000000000000002        1.2319329197185811E-004   1.0085646995587312E-003  -1.5598463004665225E-003   12.566537989249285       -4.6577020157423377E-009
  0.11666666666666665       0.18333333333333335        9.9916866314165434E-005   8.8607360084606336E-004  -1.9270863580892065E-003   12.871360981030314       -4.6410829606519099E-009
  0.11666666666666665       0.21666666666666667        7.8959729567224763E-005   7.6098863156289637E-004  -2.2449311061033504E-003   13.198175605961442       -4.6244119887572932E-009
  0.11666666666666665       0.25000000000000000        6.0397464286256018E-005   6.4239178349663451E-004  -2.5113920138790189E-003   13.517975635892155       -4.6090950292509980E-009
  0.11666666666666665       0.28333333333333333        4.4195179945148157E-005   5.3298300253740692E-004  -2.7285595672291506E-003   13.816286487181680       -4.5967973759039604E-009
  0.11666666666666665       0.31666666666666665        3.0237421906676241E-005   4.3287900735739697E-004  -2.9001242202777600E-003   14.089126704477378       -4.5893834644053499E-009
  0.11666666666666665       0.35000000000000003        1.8360760820122236E-005   3.4118035731023019E-004  -3.0300607290587121E-003   14.338575942680007       -4.5887825470859733E-009
  0.11666666666666665       0.38333333333333336        8.3793793616642565E-006   2.5654943860020337E-004  -3.1219812158943304E-003   14.569519100520809       -4.5967644183263212E-009
  0.11666666666666665       0.41666666666666669        1.0208585024556428E-007   1.7742062443029346E-004  -3.1788476868170922E-003   14.787696643709605       -4.6146390591129266E-009
  0.11666666666666665       0.45000000000000001       -6.6581632622601441E-006   1.0209101079173535E-004  -3.2028729498935786E-003   14.998688356253368       -4.6429481454976756E-009
  0.11666666666666665       0.48333333333333334       -1.2080653216920090E-005   2.8774270851679294E-005  -3.1955213678238961E-003   15.207431341308983       -4.6812714342946149E-009
  0.11666666666666665       0.51666666666666661       -1.6337827296441852E-005  -4.4357442064797029E-005  -3.1575657416547300E-003   15.417990241320657       -4.7282662856643759E-009
  0.11666666666666665       0.54999999999999993       -1.9599694721528629E-005  -1.1913274722818433E-004  -3.0891809748152125E-003   15.633413791401196       -4.7819426096835926E-009
  0.11666666666666665       0.58333333333333326       -2.2041032355762154E-005  -1.9733069784243847E-004  -2.9900693022779177E-003   15.855590618009245       -4.8400216182999112E-009
  0.11666666666666665       0.61666666666666659       -2.3850947819130260E-005  -2.8060610661013216E-004  -2.8596210079454842E-003   16.085062143951401       -4.9002382550983326E-009
  0.11666666666666665       0.64999999999999991       -2.5244534233718530E-005  -3.7036953926055505E-004  -2.6971213063080512E-003   16.320772928410076       -4.9605311724584822E-009
  0.11666666666666665       0.68333333333333324       -2.6476371413338157E-005  -4.6759092617127117E-004  -2.5020200554111459E-003   16.559748570802782       -5.0191293014117955E-009
  0.11666666666666665       0.71666666666666656       -2.7855447040587657E-005  -5.7247841123547294E-004  -2.2742877590737989E-003   16.796696668037107       -5.0745676705848952E-009
  0.11666666666666665       0.75000000000000000       -2.9760534033211613E-005  -6.8395374114848325E-004  -2.0148909750934050E-003   17.023537521891729       -5.1256650555886463E-009
  0.11666666666666665       0.78333333333333333       -3.2653838696039749E-005  -7.9879280615179613E-004  -1.7264356045300162E-003   17.228907686325055       -5.1714861889345931E-009
  0.11666666666666665       0.81666666666666665       -3.7088162472168933E-005  -9.1020883221478019E-004  -1.4140506079703642E-003   17.397783551315161       -5.2113016801164092E-009
  0.11666666666666665       0.84999999999999998       -4.3697711980369632E-005  -1.0054975588586219E-003  -1.0866175492686096E-003   17.511640049028895       -5.2445520842825388E-009
  0.11666666666666665       0.88333333333333330       -5.3153417928751011E-005  -1.0620846043789241E-003  -7.5848032616371210E-004   17.550204385750558       -5.2708183217314852E-009
  0.11666666666666665       0.91666666666666663       -6.6049432479582126E-005  -1.0408064787082506E-003  -4.5174277333434772E-004   17.497334418433965       -5.2897988610939306E-009
  0.11666666666666665       0.94999999999999996       -8.2673801619521562E-005  -8.7428213298171883E-004  -1.9901625649289866E-004   17.356677390023663       -5.3012929835880018E-009
  0.11666666666666665       0.98333333333333317       -1.0263122056426680E-004  -4.4625558807955381E-004  -4.5489543967942472E-005   17.188646036025091       -5.3051895398427418E-009
  0.15000000000000002        1.6666666666666663E-002   2.2015364617147758E-004   6.5822687974991293E-004  -7.1249914273616540E-005   13.887240081377342       -7.0412512886280920E-009
  0.15000000000000002        5.0000000000000003E-002   1.9157902679903946E-004   1.2993912329365613E-003  -2.9308321788912322E-004   13.760597455742282       -4.6820619846454914E-009
  0.15000000000000002        8.3333333333333329E-002   1.6472722470052293E-004   1.5201266439853268E-003  -6.2958542246210870E-004   13.730428546892528       -4.6693676685610752E-009
  0.15000000000000002       0.11666666666666665        1.3910237152136475E-004   1.5080140487422466E-003  -1.0074396855874307E-003   13.860280375832922       -4.6530797444266359E-009
  0.15000000000000002       0.15000000000000002        1.1490210989247387E-004   1.3841119921213943E-003  -1.3795575263198015E-003   14.127966663398869       -4.6338215695107543E-009
  0.15000000000000002       0.18333333333333335        9.2529379573796095E-005   1.2171321779913431E-003  -1.7189236474897459E-003   14.479625705195721       -4.6124745949754908E-009
  0.15000000000000002       0.21666666666666667        7.2306842094705621E-005   1.0415397796628501E-003  -2.0126889325242435E-003   14.863078757051921       -4.5902349248005958E-009
  0.15000000000000002       0.25000000000000000        5.4389621287290492E-005   8.7254454347251303E-004  -2.2569322393645929E-003   15.241995948986210       -4.5686692120433525E-009
  0.15000000000000002       0.28333333333333333        3.8779768782913004E-005   7.1571559780981230E-004  -2.4526503466679259E-003   15.597205721006372       -4.5497492101934101E-009
  0.15000000000000002       0.31666666666666665        2.5372737565345520E-005   5.7214130087266063E-004  -2.6030808869362985E-003   15.922363826789468       -4.5358287048199997E-009
  0.15000000000000002       0.35000000000000003        1.4003073259131754E-005   4.4088472466509529E-004  -2.7121113430839026E-003   16.218805898870116       -4.5295109620500928E-009
  0.15000000000000002       0.38333333333333336        4.4787024570729947E-006   3.2008611263993880E-004  -2.7834322017830830E-003   16.491600446038149       -4.5333539851720450E-009
  0.15000000000000002       0.41666666666666669       -3.3971393999829474E-006   2.0746550340512921E-004  -2.8201475887774845E-003   16.747091230473767       -4.5493980595527270E-009
  0.15000000000000002       0.45000000000000001       -9.8141605160070222E-006   1.0057213114048877E-004  -2.8246486314511196E-003   16.991561881520244       -4.5786066592843136E-009
  0.15000000000000002       0.48333333333333334       -1.4950800413160987E-005  -3.0756824168924498E-006  -2.7986316893224474E-003   17.230576630878776       -4.6204615561113577E-009
  0.15000000000000002       0.51666666666666661       -1.8975326682761009E-005  -1.0589940488324193E-004  -2.7431957111214355E-003   17.468664634373120       -4.6730110818231363E-009
  0.15000000000000002       0.54999999999999993       -2.2050615812600204E-005  -2.1018615311833090E-004  -2.6589854245296432E-003   17.709143953243615       -4.7334169045280816E-009
  0.15000000000000002       0.58333333333333326       -2.4341523871144719E-005  -3.1800808542851728E-004  -2.5463666228236898E-003   17.953974003056512       -4.7985974586245428E-009
  0.15000000000000002       0.61666666666666659       -2.6024126842218566E-005  -4.3111252755340351E-004  -2.4056314320358000E-003   18.203581092604225       -4.8656843268032879E-009
  0.15000000000000002       0.64999999999999991       -2.7296298767494432E-005  -5.5075631500961985E-004  -2.2372382646258298E-003   18.456631428659065       -4.9322421849865017E-009
  0.15000000000000002       0.68333333333333324       -2.8389083145945494E-005  -6.7744878972355520E-004  -2.0420952080250467E-003   18.709740227260987       -4.9963169834049692E-009
  0.15000000000000002       0.71666666666666656       -2.9578068305263762E-005  -8.1055007552327204E-004  -1.8218983122957741E-003   18.957113624786150       -5.0563938643749529E-009
  0.15000000000000002       0.75000000000000000       -3.1193413424191993E-005  -9.4763869300864049E-004  -1.5795388195940178E-003   19.190133471384488       -5.1113217885631612E-009
  0.15000000000000002       0.78333333333333333       -3.3626067229400432E-005  -1.0835057593770530E-003  -1.3195966278838137E-003   19.396935176918944       -5.1602362313718508E-009
  0.15000000000000002       0.81666666666666665       -3.7325584145369018E-005  -1.2085374250851719E-003  -1.0489404241064374E-003   19.562141965768689       -5.2024931151278819E-009
  0.15000000000000002       0.84999999999999998       -4.2780840696673091E-005  -1.3060915145894463E-003  -7.7745128247303993E-004   19.667207708636958       -5.2376169772799797E-009
  0.15000000000000002       0.88333333333333330       -5.0467536397573788E-005  -1.3482287238264980E-003  -5.1885078070370932E-004   19.692502098125704       -5.2652628351052000E-009
  0.15000000000000002       0.91666666666666663       -6.0734877586050784E-005  -1.2887833388917688E-003  -2.9146770575313010E-004   19.623763746181758       -5.2851888828961413E-009
  0.15000000000000002       0.94999999999999996       -7.3592481193083747E-005  -1.0522087520098032E-003  -1.1829109627495495E-004   19.468492046730827       -5.2972379564406036E-009
  0.15000000000000002       0.98333333333333317       -8.8369857008517097E-005  -5.1594622004578171E-004  -2.4200911223033327E-005   19.292653466700589       -5.3013255861978498E-009
  0.18333333333333335        1.6666666666666663E-002   1.9890026250361705E-004   7.7974791481278814E-004  -5.0271355135330825E-005   15.406496670739358       -7.0195130407076090E-009
  0.18333333333333335        5.0000000000000003E-002   1.7422508428512084E-004   1.5643405870639868E-003  -2.1490883085640810E-004   15.247423871786854       -4.6659506805143969E-009
  0.18333333333333335        8.3333333333333329E-002   1.5017142041513136E-004   1.8542213808860671E-003  -4.7745102844782693E-004   15.185856056383654       -4.6507939652218333E-009
  0.18333333333333335       0.11666666666666665        1.2662007077618480E-004   1.8582267438412693E-003  -7.8390450739211149E-004   15.300454871335161       -4.6309492299917432E-009
  0.18333333333333335       0.15000000000000002        1.0402578384907511E-004   1.7162095495679166E-003  -1.0940972279522611E-003   15.572601678706985       -4.6069679859178647E-009
  0.18333333333333335       0.18333333333333335        8.2966918920094143E-005   1.5121002490191202E-003  -1.3817970424723040E-003   15.945451260149861       -4.5796771184353213E-009
  0.18333333333333335       0.21666666666666667        6.3877643221062512E-005   1.2911839939382893E-003  -1.6326443482854143E-003   16.361067319780606       -4.5502768480226718E-009
  0.18333333333333335       0.25000000000000000        4.6975056750526679E-005   1.0753616637985712E-003  -1.8408626798738857E-003   16.777215695477246       -4.5204584407307347E-009
  0.18333333333333335       0.28333333333333333        3.2289125818208135E-005   8.7373090511172003E-004  -2.0059773023884848E-003   17.170089339768975       -4.4925210817073347E-009
  0.18333333333333335       0.31666666666666665        1.9723557653601337E-005   6.8882678717349676E-004  -2.1302478565151332E-003   17.530373626854932       -4.4694376290232984E-009
  0.18333333333333335       0.35000000000000003        9.1125396139044110E-006   5.1994987939406269E-004  -2.2169683412232460E-003   17.857878896754954       -4.4547775216938201E-009
  0.18333333333333335       0.38333333333333336        2.6208647616194080E-007   3.6486276171657792E-004  -2.2694895858296504E-003   18.157144460879252       -4.4523562488761603E-009
  0.18333333333333335       0.41666666666666669       -7.0243784743852099E-006   2.2065707774659228E-004  -2.2907427222635217E-003   18.434544695937383       -4.4655019290043736E-009