 TITLE = "Cavity_simu"
 Variables="X","Y","P","U","V","T","div"
 Zone I=          30 , J=          30 , F = POINT
   1.6666666666666663E-002   1.6666666666666663E-002   1.9489103479465474E-005   8.8463385661607091E-006  -8.8463242015723888E-006   19.993447534003256        8.6187529921115391E-010
   1.6666666666666663E-002   5.0000000000000003E-002   1.4201075246123197E-005   4.4623628964753387E-006  -2.2155000016644442E-005   19.993858294400859        6.7697854050016715E-010
   1.6666666666666663E-002   8.3333333333333329E-002   1.1114214783632676E-005   2.1129058190310592E-006  -2.8730245740634545E-005   19.994088005585191        7.0251243732867563E-010
   1.6666666666666663E-002  0.11666666666666665        9.0364240819938288E-006   1.1318168747941439E-006  -3.1974944569430528E-005   19.994185541109253        7.2938931576418259E-010
   1.6666666666666663E-002  0.15000000000000002        7.4924848363353220E-006   6.8394459562441004E-007  -3.3790681263122480E-005   19.994229816460763        7.5721428033240310E-010
   1.6666666666666663E-002  0.18333333333333335        6.2692186717124950E-006   4.5181986819022457E-007  -3.4926420012612706E-005   19.994252596975770        7.8564518418347681E-010
   1.6666666666666663E-002  0.21666666666666667        5.2570156861915956E-006   3.1725503318720953E-007  -3.5695468246671908E-005   19.994265734255077        8.1439390955845054E-010
   1.6666666666666663E-002  0.25000000000000000        4.3926575570102520E-006   2.3179958297628217E-007  -3.6244495235858955E-005   19.994274048905542        8.4322467755366677E-010
   1.6666666666666663E-002  0.28333333333333333        3.6361417968694190E-006   1.7332638613464224E-007  -3.6649592618745859E-005   19.994279726018075        8.7194876345340661E-010
   1.6666666666666663E-002  0.31666666666666665        2.9601694269379783E-006   1.3070333809690656E-007  -3.6953592803576277E-005   19.994283858591086        9.0041530438445081E-010
   1.6666666666666663E-002  0.35000000000000003        2.3448819891306209E-006   9.7847305714993227E-008  -3.7182112965491342E-005   19.994287041393850        9.2849850589900399E-010
   1.6666666666666663E-002  0.38333333333333336        1.7749960368593395E-006   7.1186366586701689E-008  -3.7351115228110340E-005   19.994289622614392        9.5608245553114771E-010
   1.6666666666666663E-002  0.41666666666666669        1.2381253019317026E-006   4.8477157707326355E-008  -3.7470746433599587E-005   19.994291820457370        9.8304583132036107E-010
   1.6666666666666663E-002  0.45000000000000001        7.2372935281586882E-007   2.8207084263792307E-008  -3.7547397470647119E-005   19.994293781814324        1.0092495840898421E-009
   1.6666666666666663E-002  0.48333333333333334        2.2240610872645541E-007   9.2661069798890020E-009  -3.7584836598886614E-005   19.994295614362500        1.0345306673126445E-009
   1.6666666666666663E-002  0.51666666666666661       -2.7462651443595655E-007  -9.2528178580266687E-009  -3.7584815000770062E-005   19.994297406027577        1.0587036371119160E-009
   1.6666666666666663E-002  0.54999999999999993       -7.7595367004744394E-007  -2.8194747291829344E-008  -3.7547331764397501E-005   19.994299238709623        1.0815697254102732E-009
   1.6666666666666663E-002  0.58333333333333326       -1.2903575415262645E-006  -4.8466815240855682E-008  -3.7470633793522200E-005   19.994301200351035        1.1029308317301498E-009
   1.6666666666666663E-002  0.61666666666666659       -1.8272403750007169E-006  -7.1179251195041859E-008  -3.7350950634823105E-005   19.994303398665366        1.1226049599290147E-009
   1.6666666666666663E-002  0.64999999999999991       -2.3971427441288984E-006  -9.7844958647047866E-008  -3.7181888707564267E-005   19.994305980607287        1.1404400447309929E-009
   1.6666666666666663E-002  0.68333333333333324       -3.0124508293273594E-006  -1.3070774940175882E-007  -3.6953297720109887E-005   19.994309164485639        1.1563242896713428E-009
   1.6666666666666663E-002  0.71666666666666656       -3.6884472886356094E-006  -1.7334013931189211E-007  -3.6649211056119163E-005   19.994313298661950        1.1701923347266270E-009
   1.6666666666666663E-002  0.75000000000000000       -4.4449880048064574E-006  -2.3182592460550454E-007  -3.6244005788538188E-005   19.994318978206778        1.1820274804017329E-009
   1.6666666666666663E-002  0.78333333333333333       -5.3093650304262049E-006  -3.1729762811005095E-007  -3.5694842671020406E-005   19.994327296679437        1.1918606531638313E-009
   1.6666666666666663E-002  0.81666666666666665       -6.3215633444797846E-006  -4.5188172292700476E-007  -3.4925623459523037E-005   19.994340440329299        1.1997669654264305E-009
   1.6666666666666663E-002  0.84999999999999998       -7.5447576181679890E-006  -6.8402581188471846E-007  -3.3789675830917242E-005   19.994363232491896        1.2058606789017373E-009
   1.6666666666666663E-002  0.88333333333333330       -9.0884486270585473E-006  -1.1319115514180330E-006  -3.1973698198449001E-005   19.994407531502610        1.2102892504655630E-009
   1.6666666666666663E-002  0.91666666666666663       -1.1165546760548870E-005  -2.1130020864382808E-006  -2.8728744168655270E-005   19.994505114375716        1.2132269945890495E-009
   1.6666666666666663E-002  0.94999999999999996       -1.4250676124747811E-005  -4.4623553369782837E-006  -2.2153346276976307E-005   19.994734865444229        1.2148687493821440E-009
   1.6666666666666663E-002  0.98333333333333317       -1.9535456935310835E-005  -8.8454650890287849E-006  -8.8454853460927656E-006   19.995145513885774        1.2154238388309424E-009
   5.0000000000000003E-002   1.6666666666666663E-002   1.4802014324039833E-005   1.5663235290178599E-005   2.0294538942716143E-006   24.303877001472259        7.2312772774146914E-010
   5.0000000000000003E-002   5.0000000000000003E-002   1.2438399729887525E-005   9.4156193435764928E-006   3.5680227255618617E-006   24.304306484176411        5.0925866685607346E-010
   5.0000000000000003E-002   8.3333333333333329E-002   1.0325643616762249E-005   5.1479786160063324E-006   2.1549794154490758E-006   24.304554839771892        5.2384876769511965E-010
   5.0000000000000003E-002  0.11666666666666665        8.6206974242481886E-006   3.0398621273156661E-006   4.5660176642626795E-007   24.304663504032472        5.3855015932235571E-010
   5.0000000000000003E-002  0.15000000000000002        7.2431750337545479E-006   1.9481724765238737E-006  -8.9989170159688307E-007   24.304714147825582        5.5314859750331359E-010
   5.0000000000000003E-002  0.18333333333333335        6.1052892260728570E-006   1.3319301212724835E-006  -1.9084466947391680E-006   24.304740723571477        5.6747289067907202E-010
   5.0000000000000003E-002  0.21666666666666667        5.1422630569528516E-006   9.5451702309923558E-007  -2.6567248885470731E-006   24.304756256664742        5.8139564605998151E-010
   5.0000000000000003E-002  0.25000000000000000        4.3089924198708222E-006   7.0624941508057529E-007  -3.2193624906078204E-006   24.304766175398928        5.9483187873488454E-010
   5.0000000000000003E-002  0.28333333333333333        3.5736764132863904E-006   5.3239005562937831E-007  -3.6477299803168222E-006   24.304772988145878        6.0773486743536612E-010
   5.0000000000000003E-002  0.31666666666666665        2.9131169676402620E-006   4.0363974696401038E-007  -3.9756798707196129E-006   24.304777967715527        6.2008878258947942E-010
   5.0000000000000003E-002  0.35000000000000003        2.3096863173373405E-006   3.0328170322062861E-007  -4.2254791668334868E-006   24.304781813958012        6.3189803533644361E-010
   5.0000000000000003E-002  0.38333333333333336        1.7494061869621656E-006   2.2119494290186522E-007  -4.4118672171504746E-006   24.304784939688023        6.4317409161144108E-010
   5.0000000000000003E-002  0.41666666666666669        1.2207076464050131E-006   1.5087900917362232E-007  -4.5445925023762967E-006   24.304787605069667        6.5392160494995657E-010
   5.0000000000000003E-002  0.45000000000000001        7.1360000316698868E-007   8.7876604744218983E-008  -4.6299576648785403E-006   24.304789985989835        6.6412679669520094E-010
   5.0000000000000003E-002  0.48333333333333334        2.1908379046977338E-007   2.8875633097996946E-008  -4.6717412222644915E-006   24.304792211790858        6.7375133741008866E-010
   5.0000000000000003E-002  0.51666666666666661       -2.7129456041477516E-007  -2.8852241596813479E-008  -4.6717154274360803E-006   24.304794388306046        6.8273381483541620E-010
   5.0000000000000003E-002  0.54999999999999993       -7.6581430627845060E-007  -8.7856176259467810E-008  -4.6298792443449423E-006   24.304796614184063        6.9099825926451184E-010
   5.0000000000000003E-002  0.58333333333333326       -1.2729291049547146E-006  -1.5086479829847191E-007  -4.5444582371041430E-006   24.304798995267564        6.9846663448781056E-010
   5.0000000000000003E-002  0.61666666666666659       -1.8016385769219528E-006  -2.2119082498218871E-007  -4.4116713543922285E-006   24.304801660918166        7.0507154845226980E-010
   5.0000000000000003E-002  0.64999999999999991       -2.3619335703444576E-006  -3.0329258170653030E-007  -4.2252127700873826E-006   24.304804787052845        7.1076646995011543E-010
   5.0000000000000003E-002  0.68333333333333324       -2.9653830372891286E-006  -4.0367208282374414E-007  -3.9753297500090705E-006   24.304808633877574        7.1553226909121129E-010
   5.0000000000000003E-002  0.71666666666666656       -3.6259648554858231E-006  -5.3245255227728007E-007  -3.6472769771292204E-006   24.304813614259270        7.1938009860844903E-010
   5.0000000000000003E-002  0.75000000000000000       -4.3613053666393407E-006  -7.0635382554643093E-007  -3.2187786982841931E-006   24.304820428100683        7.2235126796324121E-010
   5.0000000000000003E-002  0.78333333333333333       -5.1945988686917006E-006  -9.5467880820992392E-007  -2.6559690555219732E-006   24.304830348224126        7.2451495058742225E-010
   5.0000000000000003E-002  0.81666666666666665       -6.1576371046169848E-006  -1.3321680133668602E-006  -1.9074567613617069E-006   24.304845882842496        7.2596450504636384E-010
   5.0000000000000003E-002  0.84999999999999998       -7.2955019386739899E-006  -1.9485043049896038E-006  -8.9857529966972644E-007   24.304872459523612        7.2681303272555510E-010
   5.0000000000000003E-002  0.88333333333333330       -8.6729125135722059E-006  -3.0402841633680428E-006   4.5836267544344996E-007   24.304923100909441        7.2718862924531572E-010
   5.0000000000000003E-002  0.91666666666666663       -1.0377488381289044E-005  -5.1483776182167731E-006   2.1572214216202737E-006   24.305031749617822        7.2722964887577063E-010
   5.0000000000000003E-002  0.94999999999999996       -1.2489115125624617E-005  -9.4153723341537961E-006   3.5702807656551647E-006   24.305280048141153        7.2708019816232852E-010
   5.0000000000000003E-002  0.98333333333333317       -1.4850017126526859E-005  -1.5660440791362967E-005   2.0304772719278481E-006   24.305709397327707        7.2688600524415357E-010
   8.3333333333333329E-002   1.6666666666666663E-002   1.1429677816643191E-005   1.1510195421450093E-005   2.1236118342910818E-006   24.938888839483948        8.2846232356422432E-010
   8.3333333333333329E-002   5.0000000000000003E-002   1.0422893607567894E-005   9.2023538091155038E-006   4.9513924299775862E-006   24.938930099905669        5.8057851726195245E-010
   8.3333333333333329E-002   8.3333333333333329E-002   9.1309877399814308E-006   6.1360160829269894E-006   5.5897005637244839E-006   24.938961968403930        5.9167967504760225E-010
   8.3333333333333329E-002  0.11666666666666665        7.8784468999047386E-006   4.1169117917434303E-006   5.2230286814412542E-006   24.938979071591348        6.0192394098830971E-010
   8.3333333333333329E-002  0.15000000000000002        6.7547441478413494E-006   2.8566159198368856E-006   4.5940674546695529E-006   24.938988335934361        6.1115405763557018E-010
   8.3333333333333329E-002  0.18333333333333335        5.7668254774171260E-006   2.0523732953967780E-006   3.9737750144029541E-006   24.938993708148413        6.1926615958169469E-010
   8.3333333333333329E-002  0.21666666666666667        4.8979759099064228E-006   1.5180854842581483E-006   3.4380814786900126E-006   24.938997053848844        6.2621104528655651E-010
   8.3333333333333329E-002  0.25000000000000000        4.1275309303787254E-006   1.1467380604444888E-006   2.9967025480918505E-006   24.938999278649391        6.3199326490611621E-010
   8.3333333333333329E-002  0.28333333333333333        3.4365719994736143E-006   8.7655619681321741E-007   2.6404564383706304E-006   24.939000848165627        6.3666704078015383E-010
   8.3333333333333329E-002  0.31666666666666665        2.8090249954389518E-006   6.7094994636497625E-007   2.3569717351664573E-006   24.939002016596078        6.4032797965787820E-010
   8.3333333333333329E-002  0.35000000000000003        2.2314086817809237E-006   5.0747964668893009E-007   2.1353051453218624E-006   24.939002930935626        6.4309985032727312E-010
   8.3333333333333329E-002  0.38333333333333336        1.6922873032637755E-006   3.7182152647666422E-007   1.9669113900735057E-006   24.939003681026914        6.4511668805779427E-010
   8.3333333333333329E-002  0.41666666666666669        1.1817387082784914E-006   2.5440158757325092E-007   1.8455306585699905E-006   24.939004324975340        6.4650232079463001E-010
   8.3333333333333329E-002  0.45000000000000001        6.9090790491687855E-007   1.4845087788397824E-007   1.7668425012404590E-006   24.939004902832636        6.4735173435381707E-010
   8.3333333333333329E-002  0.48333333333333334        2.1164266895797875E-007   4.8822612835933138E-008   1.7281486882494271E-006   24.939005444477054        6.4772017426234842E-010
   8.3333333333333329E-002  0.51666666666666661       -2.6381096167163574E-007  -4.8786640902631922E-008   1.7281545101521269E-006   24.939005974583750        6.4762446726806081E-010
   8.3333333333333329E-002  0.54999999999999993       -7.4307801140635230E-007  -1.4841895739423886E-007   1.7668599810431019E-006   24.939006516228485        6.4705595001177863E-010
   8.3333333333333329E-002  0.58333333333333326       -1.2339123655459424E-006  -2.5437813670543280E-007   1.8455598020063721E-006   24.939007094089138        6.4599889645756853E-010
   8.3333333333333329E-002  0.61666666666666659       -1.7444660441324800E-006  -3.7181173384441168E-007   1.9669520663111236E-006   24.939007738049106        6.4444776954343102E-010
   8.3333333333333329E-002  0.64999999999999991       -2.2835935877909079E-006  -5.0748994745089773E-007   2.1353568016997155E-006   24.939008488167019        6.4241942292045157E-010
   8.3333333333333329E-002  0.68333333333333324       -2.8612162158424152E-006  -6.7098860271309074E-007   2.3570328118809127E-006   24.939009402555399        6.3995938574583979E-010
   8.3333333333333329E-002  0.71666666666666656       -3.4887678281465237E-006  -8.7663398822049882E-007   2.6405231950818259E-006   24.939010571060770        6.3714313843165032E-010
   8.3333333333333329E-002  0.75000000000000000       -4.1797260393360223E-006  -1.1468689763059499E-006   2.9967667187457803E-006   24.939012140670339        6.3407386965283409E-010
   8.3333333333333329E-002  0.78333333333333333       -4.9501579320731412E-006  -1.5182869282022926E-006   3.4381255437053931E-006   24.939014365540341        6.3087810850580230E-010
   8.3333333333333329E-002  0.81666666666666665       -5.8189682532893842E-006  -2.0526640761744125E-006   3.9737625833091910E-006   24.939017711140679        6.2770028444355782E-010
   8.3333333333333329E-002  0.84999999999999998       -6.8067940562849489E-006  -2.8570061590338795E-006   4.5939241247147967E-006   24.939023082612714        6.2469692328312085E-010
   8.3333333333333329E-002  0.88333333333333330       -7.9302951018809372E-006  -4.1173617099481582E-006   5.2226105623844155E-006   24.939032343941879        6.2203091905204950E-010
   8.3333333333333329E-002  0.91666666666666663       -9.1824189574610049E-006  -6.1362896524462349E-006   5.5887863356061917E-006   24.939049435822074        6.1986614421784649E-010
   8.3333333333333329E-002  0.94999999999999996       -1.0473536483976482E-005  -9.2016302586087799E-006   4.9499418258981457E-006   24.939081263669422        6.1836255260932626E-010
   8.3333333333333329E-002  0.98333333333333317       -1.1479226148312492E-005  -1.1507166912038051E-005   2.1227741980992223E-006   24.939122424951393        6.1767186555912977E-010
  0.11666666666666665        1.6666666666666663E-002   9.1821008853191581E-006   8.1654793554027571E-006   1.2211341662482633E-006   24.996382318635337        9.6760719707109869E-010
  0.11666666666666665        5.0000000000000003E-002   8.6927823505162417E-006   7.7618645370591625E-006   3.1786097422278636E-006   24.996384286368766        6.7336570777702101E-010
  0.11666666666666665        8.3333333333333329E-002   7.8970209555780397E-006   5.9620449873950414E-006   4.1548040680796520E-006   24.996386250807003        6.7989672363779306E-010
  0.11666666666666665       0.11666666666666665        7.0074036967484645E-006   4.4407098963644224E-006   4.3716915712936748E-006   24.996387496372108        6.8430085066932360E-010
  0.11666666666666665       0.15000000000000002        6.1305614879389944E-006   3.3169073335258467E-006   4.2166063443037999E-006   24.996388264633012        6.8649405323366721E-010
  0.11666666666666665       0.18333333333333335        5.3093156433938138E-006   2.5083048176141008E-006   3.9207192382216060E-006   24.996388754607882        6.8645917909151890E-010
  0.11666666666666665       0.21666666666666667        4.5553011349571349E-006   1.9225263374637518E-006   3.5960840015894765E-006   24.996389081261778        6.8424828734690878E-010
  0.11666666666666665       0.25000000000000000        3.8665963789788403E-006   1.4888369875258894E-006   3.2909668591598416E-006   24.996389309403700        6.7998295485459446E-010
  0.11666666666666665       0.28333333333333333        3.2360659547450148E-006   1.1582177843132242E-006   3.0234961625387517E-006   24.996389476281049        6.7385108532243488E-010
  0.11666666666666665       0.31666666666666665        2.6550107335314453E-006   8.9768437896778647E-007   2.7986284613794737E-006   24.996389603974620        6.6609825619474885E-010
  0.11666666666666665       0.35000000000000003        2.1146431236409844E-006   6.8503352141501496E-007   2.6160501861890236E-006   24.996389706056071        6.5701154482584968E-010
  0.11666666666666665       0.38333333333333336        1.6066015968921212E-006   5.0506105331724317E-007   2.4736937419182080E-006   24.996389791207374        6.4689476629218356E-010
  0.11666666666666665       0.41666666666666669        1.1230571229221281E-006   3.4703691457476071E-007   2.3692425287582053E-006   24.996389865241621        6.3603693908796330E-010
  0.11666666666666665       0.45000000000000001        6.5665474375266346E-007   2.0304513172524091E-007   2.3007436814392469E-006   24.996389932274269        6.2468066271688175E-010
  0.11666666666666665       0.48333333333333334        2.0039395213821267E-007   6.6869752154676134E-008   2.2668383138424471E-006   24.996389995438289        6.1300175911747587E-010
  0.11666666666666665       0.51666666666666661       -2.5251029421526155E-007  -6.6796547414564934E-008   2.2668370834177245E-006   24.996390057356077        6.0111068659807309E-010
  0.11666666666666665       0.54999999999999993       -7.0877098373277475E-007  -2.0297564527581250E-007   2.3007396213631208E-006   24.996390120492556        5.8907546799704592E-010
  0.11666666666666665       0.58333333333333326       -1.1751729332101708E-006  -3.4697512084040013E-007   2.3692344571248620E-006   24.996390187472400        5.7695219374552902E-010
  0.11666666666666665       0.61666666666666659       -1.6587161331531964E-006  -5.0501143705345288E-007   2.4736794169821830E-006   24.996390261432936        5.6481022409959065E-010
  0.11666666666666665       0.64999999999999991       -2.1667545846037996E-006  -6.8500130497097533E-007   2.6160258160610894E-006   24.996390346495598        5.5274688619207134E-010
  0.11666666666666665       0.68333333333333324       -2.7071156494469037E-006  -8.9767566246922016E-007   2.7985878234566255E-006   24.996390448479740        5.4089233675990155E-010
  0.11666666666666665       0.71666666666666656       -3.2881580096452982E-006  -1.1582394511964967E-006   3.0234290863615395E-006   24.996390576072340        5.2940756101351713E-010
  0.11666666666666665       0.75000000000000000       -3.9186644473258448E-006  -1.4888959980265421E-006   3.2908566991118768E-006   24.996390742846078        5.1847849305760587E-010
  0.11666666666666665       0.78333333333333333       -4.6073260178337834E-006  -1.9226274680738834E-006   3.5959036313928080E-006   24.996390970873911        5.0830843043027341E-010
  0.11666666666666665       0.81666666666666665       -5.3612647488241735E-006  -2.5084445730993174E-006   3.9204253952003424E-006   24.996391297374888        4.9911006680865039E-010
  0.11666666666666665       0.84999999999999998       -6.1823806887752212E-006  -3.3170587476702181E-006   4.2161343161080422E-006   24.996391787078046        4.9109784921028056E-010
  0.11666666666666665       0.88333333333333330       -7.0590071263379436E-006  -4.4407858448587108E-006   4.3709616404300640E-006   24.996392554720003        4.8448099337891951E-010
  0.11666666666666665       0.91666666666666663       -7.9482874062408547E-006  -5.9618233840885882E-006   4.1537804976836740E-006   24.996393798563943        4.7945729209566295E-010
  0.11666666666666665       0.94999999999999996       -8.7435935807062015E-006  -7.7609329115341620E-006   3.1774979568552664E-006   24.996395757207193        4.7620775968100059E-010
  0.11666666666666665       0.98333333333333317       -9.2324981492477589E-006  -8.1637683633795692E-006   1.2206061411594435E-006   24.996397707118277        4.7489212338751568E-010
  0.15000000000000002        1.6666666666666663E-002   7.5448029725734950E-006   6.2252457799073030E-006   7.1913451357753795E-007   24.999851009467712        1.1386526237405596E-009
  0.15000000000000002        5.0000000000000003E-002   7.2696179648561531E-006   6.4539928913831080E-006   2.0098235919705570E-006   24.999851080579859        7.8636653804797611E-010
  0.15000000000000002        8.3333333333333329E-002   6.7568885136859186E-006   5.4237175702184179E-006   2.8798771112582890E-006   24.999851157254238        7.8730824109964135E-010
  0.15000000000000002       0.11666666666666665        6.1235753367953161E-006   4.3626117092678602E-006   3.2794641468695406E-006   24.999851211798418        7.8456730995358289E-010
  0.15000000000000002       0.15000000000000002        5.4507786913606779E-006   3.4622364631090151E-006   3.3673673231868066E-006   24.999851249490266        7.7814662591095540E-010
  0.15000000000000002       0.18333333333333335        4.7845737667527817E-006   2.7417372939933291E-006   3.2845414771701808E-006   24.999851276036203        7.6813195639482301E-010
  0.15000000000000002       0.21666666666666667        4.1473173686327535E-006   2.1751135854971552E-006   3.1232052149809417E-006   24.999851295361335        7.5469605295315625E-010
  0.15000000000000002       0.25000000000000000        3.5474889227960104E-006   1.7280375023984626E-006   2.9365822116495802E-006   24.999851310006878        7.3810140363225491E-010
  0.15000000000000002       0.28333333333333333        2.9860863768458198E-006   1.3699216828028338E-006   2.7531953388271675E-006   24.999851321592750        7.1869967700126207E-010
  0.15000000000000002       0.31666666666666665        2.4603105372376838E-006   1.0766327828901174E-006   2.5874566638016064E-006   24.999851331153785        6.9692460756245111E-010
  0.15000000000000002       0.35000000000000003        1.9655530277744459E-006   8.2998131535260476E-007   2.4461836296036247E-006   24.999851339359086        6.7327388074886192E-010
  0.15000000000000002       0.38333333333333336        1.4964201662159971E-006   6.1640501677857418E-007   2.3322920740745172E-006   24.999851346649987        6.4827574802065735E-010
  0.15000000000000002       0.41666666666666669        1.0472344995852640E-006   4.2567609617509204E-007   2.2468027029619907E-006   24.999851353326807        6.2243989456316367E-010
  0.15000000000000002       0.45000000000000001        6.1226074409881852E-007   2.4984450857595155E-007   2.1899043144816019E-006   24.999851359604378        5.9620160531783059E-010
  0.15000000000000002       0.48333333333333334        1.8578910691457833E-007   8.2415720725334289E-008   2.1615043994136036E-006   24.999851365648603        5.6988136709947650E-010
  0.15000000000000002       0.51666666666666661       -2.3785311623055226E-007  -8.2298938813299200E-008   2.1615008473336431E-006   24.999851371601054        5.4368622162713078E-010
  0.15000000000000002       0.54999999999999993       -6.6432299179015702E-007  -2.4973058979289242E-007   2.1898931724426825E-006   24.999851377596865        5.1775594105949696E-010
  0.15000000000000002       0.58333333333333326       -1.0992929224142317E-006  -4.2556801882560045E-007   2.2467824458729877E-006   24.999851383780658        4.9221778318261940E-010
  0.15000000000000002       0.61666666666666659       -1.5484720363302991E-006  -6.1630596391693737E-007   2.3322599309396304E-006   24.999851390324668        4.6722431568954216E-010
  0.15000000000000002       0.64999999999999991       -2.0175944555517118E-006  -8.2989465401446899E-007   2.4461352036180123E-006   24.999851397452897        4.4296959260833023E-010
  0.15000000000000002       0.68333333333333324       -2.5123357478529573E-006  -1.0765618137505096E-006   2.5873853015179076E-006   24.999851405476281        4.1968942335954414E-010
  0.15000000000000002       0.71666666666666656       -3.0380866414326910E-006  -1.3698689661782772E-006   2.7530911655813174E-006   24.999851414846749        3.9765299406556795E-010
  0.15000000000000002       0.75000000000000000       -3.5994509993246769E-006  -1.7280033773164590E-006   2.9364308252720194E-006   24.999851426242596        3.7715111241381463E-010
  0.15000000000000002       0.78333333333333333       -4.1992213232575233E-006  -2.1750931295534027E-006   3.1229863074618032E-006   24.999851440705459        3.5848404079203908E-010
  0.15000000000000002       0.81666666666666665       -4.8363902298135311E-006  -2.7417143883163707E-006   3.2842284845643025E-006   24.999851459858597        3.4195026962386961E-010
  0.15000000000000002       0.84999999999999998       -5.5024662993307182E-006  -3.4621730790535172E-006   3.3669313768382528E-006   24.999851486241212        3.2783669223385327E-010
  0.15000000000000002       0.88333333333333330       -6.1750811310197052E-006  -4.3624308719441375E-006   3.2788904080810378E-006   24.999851523760018        3.1641023007854632E-010
  0.15000000000000002       0.91666666666666663       -6.8081587484014853E-006  -5.4232880490795453E-006   2.8792077138925845E-006   24.999851577952501        3.0791081088912126E-010
  0.15000000000000002       0.94999999999999996       -7.3206334414993474E-006  -6.4531791444546204E-006   2.0092272546563973E-006   24.999851652469715        3.0254557671936582E-010
  0.15000000000000002       0.98333333333333317       -7.5956422766885270E-006  -6.2242632286132805E-006   7.1888607066775439E-007   24.999851710665315        3.0048422200424328E-010
  0.18333333333333335        1.6666666666666663E-002   6.2571579175192605E-006   5.0451348649464895E-006   4.6101770273760795E-007   24.999995651448309        1.3394286362011266E-009
  0.18333333333333335        5.0000000000000003E-002   6.0843286760865293E-006   5.4605685218245903E-006   1.3439336190789029E-006   24.999995666793581        9.1816510098326632E-010
  0.18333333333333335        8.3333333333333329E-002   5.7373278789783915E-006   4.8513129605965628E-006   2.0397658191638968E-006   24.999995671278473        9.1257166107727478E-010
  0.18333333333333335       0.11666666666666665        5.2792229746819487E-006   4.1199635321685814E-006   2.4552880022818158E-006   24.999995673801042        9.0147327005359642E-010
  0.18333333333333335       0.15000000000000002        4.7644002871670175E-006   3.4275148062407474E-006   2.6448104792228807E-006   24.999995676046616        8.8497024118730603E-010
  0.18333333333333335       0.18333333333333335        4.2308816726191057E-006   2.8213059474805930E-006   2.6828442371546956E-006   24.999995678245202        8.6326322766096307E-010
  0.18333333333333335       0.21666666666666667        3.7019052449214042E-006   2.3081684107227509E-006   2.6316107331490509E-006   24.999995680469024        8.3665984154602992E-010
  0.18333333333333335       0.25000000000000000        3.1899558765816757E-006   1.8782893730214606E-006   2.5349792912791319E-006   24.999995682757795        8.0558154067243565E-010
  0.18333333333333335       0.28333333333333333        2.7004807573338464E-006   1.5168074026030159E-006   2.4212791228673210E-006   24.999995685129093        7.7056871609819261E-010
  0.18333333333333335       0.31666666666666665        2.2345927982561949E-006   1.2089502527074171E-006   2.3078632494819939E-006   24.999995687583336        7.3227939495467068E-010
  0.18333333333333335       0.35000000000000003        1.7908390402734799E-006   9.4185859468951836E-007   2.2049881003812458E-006   24.999995690108221        6.9147344575123203E-010
  0.18333333333333335       0.38333333333333336        1.3662921605946359E-006   7.0490466821186032E-007   2.1185470917124639E-006   24.999995692683111        6.4897126412638833E-010
  0.18333333333333335       0.41666666666666669        9.5720037484794669E-007   4.8941959171570308E-007   2.0518354036068667E-006   24.999995695283410        6.0557843967505985E-010