 TITLE = "Cavity_simu"
 Variables="X","Y","P","U","V","T","div"
 Zone I=          30 , J=          30 , F = POINT
   1.6666666666666663E-002   1.6666666666666663E-002   3.0328054688974628E-004   1.8755184792679181E-005  -1.8755225375082565E-005   6.0223207257134810       -2.4349442030811158E-009
   1.6666666666666663E-002   5.0000000000000003E-002   2.6102152845444411E-004   4.7313058165680591E-005  -8.4823538040020737E-005   6.0625577568031890       -1.7474505015734054E-009
   1.6666666666666663E-002   8.3333333333333329E-002   2.2169616544911051E-004   6.0651686721466502E-005  -1.9278833972837767E-004   6.1526681978027931       -1.6606220890579004E-009
   1.6666666666666663E-002  0.11666666666666665        1.8566023390190301E-004   6.5031829806273711E-005  -3.1847190988143308E-004   6.2948824111153909       -1.5568968241355674E-009
   1.6666666666666663E-002  0.15000000000000002        1.5278273496608226E-004   6.5704687799886225E-005  -4.4920847743628683E-004   6.4836757858828520       -1.4400248033938357E-009
   1.6666666666666663E-002  0.18333333333333335        1.2293603297221367E-004   6.5293897237705316E-005  -5.8020710837709182E-004   6.7084129638376426       -1.3141680027181635E-009
   1.6666666666666663E-002  0.21666666666666667        9.6117046697435823E-005   6.4631975749648030E-005  -7.1013302299614400E-004   6.9568233604452887       -1.1837339272853520E-009
   1.6666666666666663E-002  0.25000000000000000        7.2425320264471043E-005   6.3705651340506135E-005  -8.3847068736858286E-004   7.2178454924838560       -1.0532031544628617E-009
   1.6666666666666663E-002  0.28333333333333333        5.2010035298328054E-005   6.2247448107257561E-005  -9.6442381981903086E-004   7.4831245908427659       -9.2695790106234188E-010
   1.6666666666666663E-002  0.31666666666666665        3.5025929572724613E-005   6.0008058020253755E-005  -1.0866793548811459E-003   7.7472288307920323       -8.0911832268937278E-010
   1.6666666666666663E-002  0.35000000000000003        2.1604525591914523E-005   5.6839377064057064E-005  -1.2035268151739690E-003   8.0070924387970290       -7.0339241202421743E-010
   1.6666666666666663E-002  0.38333333333333336        1.1836696336589857E-005   5.2692303127041707E-005  -1.3130585173040147E-003   8.2612243865322288       -6.1294440920414694E-010
   1.6666666666666663E-002  0.41666666666666669        5.7621827365314451E-006   4.7586148670935610E-005  -1.4133369883224901E-003   8.5090192106588010       -5.4028548171838886E-010
   1.6666666666666663E-002  0.45000000000000001        3.3633982723466486E-006   4.1573566856916505E-005  -1.5024967209749302E-003   8.7502816882534376       -4.8718979892004022E-010
   1.6666666666666663E-002  0.48333333333333334        4.5618402517310543E-006   3.4709925592032634E-005  -1.5787802291210170E-003   8.9849388821026146       -4.5463844451296143E-010
   1.6666666666666663E-002  0.51666666666666661        9.2155739830715782E-006   2.7031073129545550E-005  -1.6405212427997883E-003   9.2128685752674322       -4.4279315283834997E-010
   1.6666666666666663E-002  0.54999999999999993        1.7116212151661290E-005   1.8541293525575838E-005  -1.6860936243514861E-003   9.4337831019532583       -4.5100143216368627E-010
   1.6666666666666663E-002  0.58333333333333326        2.7983992785303232E-005   9.2110719608222298E-006  -1.7138460053184692E-003   9.6471333154155463       -4.7783366553897505E-010
   1.6666666666666663E-002  0.61666666666666659        4.1459986791664282E-005  -1.0180335622019075E-006  -1.7220390603668433E-003   9.8520179728402919       -5.2115156416417726E-010
   1.6666666666666663E-002  0.64999999999999991        5.7094914913849677E-005  -1.2225813906232329E-005  -1.7087952312210318E-003   10.047093400935847       -5.7820579389949306E-010
   1.6666666666666663E-002  0.68333333333333324        7.4334215700736823E-005  -2.4507692500152122E-005  -1.6720617452140622E-003   10.230478582123153       -6.4575909463487902E-010
   1.6666666666666663E-002  0.71666666666666656        9.2498604564583123E-005  -3.7972924015310963E-005  -1.6095811514650750E-003   10.399645726959399       -7.2022945767080682E-010
   1.6666666666666663E-002  0.75000000000000000        1.1075826376483896E-004  -5.2741587775334103E-005  -1.5188666649757045E-003   10.551281319589727       -7.9784701805321601E-010
   1.6666666666666663E-002  0.78333333333333333        1.2809718443027038E-004  -6.8919677248914076E-005  -1.3972054278291973E-003   10.681107079136519       -8.7481745372069986E-010
   1.6666666666666663E-002  0.81666666666666665        1.4326288218711775E-004  -8.6499953763228361E-005  -1.2417858271887485E-003   10.783685320788095       -9.4748416404333291E-010
   1.6666666666666663E-002  0.84999999999999998        1.5469793476630386E-004  -1.0507094662135310E-004  -1.0502149594702659E-003   10.852347520313970       -1.0124817624926341E-009
   1.6666666666666663E-002  0.88333333333333330        1.6045881204455588E-004  -1.2307164494457852E-004  -8.2207240256026580E-004   10.879691442592529       -1.0668741281041894E-009
   1.6666666666666663E-002  0.91666666666666663        1.5815744007882827E-004  -1.3597885672572639E-004  -5.6302193714237231E-004   10.859850088255925       -1.1082705551890282E-009
   1.6666666666666663E-002  0.94999999999999996        1.4504846339832961E-004  -1.3194305559698620E-004  -2.9510006220609267E-004   10.795492511876379       -1.1349154220574587E-009
   1.6666666666666663E-002  0.98333333333333317        1.1863989730837851E-004  -8.1578531857974339E-005  -8.1578512762181738E-005   10.715993756567720       -1.1457475567258624E-009
   5.0000000000000003E-002   1.6666666666666663E-002   3.0442765278789033E-004   8.6735680286153814E-005  -4.9225339300636019E-005   7.0076761492463238       -1.7159904343831689E-009
   5.0000000000000003E-002   5.0000000000000003E-002   2.6324515990947971E-004   2.0008720858162457E-004  -2.0391178883111133E-004   7.0837280137762901       -1.0787745540613569E-009
   5.0000000000000003E-002   8.3333333333333329E-002   2.2501110112857454E-004   2.5577027025970621E-004  -4.4383981291643248E-004   7.2614231825816491       -1.0223225200417518E-009
   5.0000000000000003E-002  0.11666666666666665        1.8961806074820252E-004   2.7675742974609481E-004  -7.2500051283756035E-004   7.5466667990389027       -9.5592591481397093E-010
   5.0000000000000003E-002  0.15000000000000002        1.5699373873578106E-004   2.8138982326208443E-004  -1.0216747612662321E-003   7.9275940089034673       -8.8204283113513249E-010
   5.0000000000000003E-002  0.18333333333333335        1.2715200900356217E-004   2.7954773235500357E-004  -1.3206151748984200E-003   8.3812010161565773       -8.0337415019060554E-010
   5.0000000000000003E-002  0.21666666666666667        1.0019028351217954E-004   2.7491346797019927E-004  -1.6152246546843950E-003   8.8813189241114969       -7.2275457146941946E-010
   5.0000000000000003E-002  0.25000000000000000        7.6258122567122563E-005   2.6795558562412347E-004  -1.9014184768616665E-003   9.4048849217175050       -6.4304085840849456E-010
   5.0000000000000003E-002  0.28333333333333333        5.5524393391804469E-005   2.5802832268122727E-004  -2.1754962064388641E-003   9.9349984216373315       -5.6700158630740294E-010
   5.0000000000000003E-002  0.31666666666666665        3.8152061469377904E-005   2.4444705459089513E-004  -2.4334605891928787E-003   10.461083930541122       -4.9721329744428777E-010
   5.0000000000000003E-002  0.35000000000000003        2.4279672869573667E-005   2.2686522647127449E-004  -2.6710780156394137E-003   10.977454431090395       -4.3596592742140006E-010
   5.0000000000000003E-002  0.38333333333333336        1.4006980118962662E-005   2.0529509397616019E-004  -2.8841749893904370E-003   11.481522135999818       -3.8518125407976944E-010
   5.0000000000000003E-002  0.41666666666666669        7.3837159386203561E-006   1.7999199402055481E-004  -3.0689051859833158E-003   11.972353358578959       -3.4634586691673075E-010
   5.0000000000000003E-002  0.45000000000000001        4.4015808222185883E-006   1.5131156491764581E-004  -3.2218893249792531E-003   12.449735817523194       -3.2046058341672623E-010
   5.0000000000000003E-002  0.48333333333333334        4.9892754010577302E-006   1.1958809067047363E-004  -3.3402220061439485E-003   12.913644712243872       -3.0800786053608586E-010
   5.0000000000000003E-002  0.51666666666666661        9.0095694957133636E-006   8.5054296943901680E-005  -3.4213824065976021E-003   13.363932210295951       -3.0893821680554046E-010
   5.0000000000000003E-002  0.54999999999999993        1.6256756041746547E-005   4.7808183201251140E-005  -3.4631001639594348E-003   13.800110781029366       -3.2267712850655994E-010
   5.0000000000000003E-002  0.58333333333333326        2.6452743558309657E-005   7.8215483678906028E-006  -3.4632251757362740E-003   14.221164771144897       -3.4815249901759548E-010
   5.0000000000000003E-002  0.61666666666666659        3.9240435978415388E-005  -3.5023376100098385E-005  -3.4196372834067457E-003   14.625367578009136       -3.8384270891964056E-010
   5.0000000000000003E-002  0.64999999999999991        5.4173658082356984E-005  -8.0886719035990184E-005  -3.3302148967356247E-003   15.010098214771567       -4.2784322785982543E-010
   5.0000000000000003E-002  0.68333333333333324        7.0703382800972551E-005  -1.2992820250973261E-004  -3.1928670030992191E-003   15.371648071895532       -4.7794966682307427E-010
   5.0000000000000003E-002  0.71666666666666656        8.8160138877565612E-005  -1.8227162736093083E-004  -3.0056284230878636E-003   15.704995087576357       -5.3175325340909518E-010
   5.0000000000000003E-002  0.75000000000000000        1.0573213000398632E-004  -2.3795155608328201E-004  -2.7668342818665701E-003   16.003507876823676       -5.8674449153472974E-010
   5.0000000000000003E-002  0.78333333333333333        1.2243805199261911E-004  -2.9676210297029375E-004  -2.4754431733142383E-003   16.258543097746738       -6.4042037298261967E-010
   5.0000000000000003E-002  0.81666666666666665        1.3709391319247240E-004  -3.5782295285372023E-004  -2.1316974016946794E-003   16.458954193986564       -6.9038984251701407E-010
   5.0000000000000003E-002  0.84999999999999998        1.4827707865796980E-004  -4.1847526101961951E-004  -1.7385410123382113E-003   16.590735671928563       -7.3447268406079402E-010
   5.0000000000000003E-002  0.88333333333333330        1.5430431078969348E-004  -4.7170726276429684E-004  -1.3046436967738314E-003   16.637630625267533       -7.7078770102656513E-010
   5.0000000000000003E-002  0.91666666666666663        1.5327482061183400E-004  -5.0040344709503673E-004  -8.5063401639866678E-004   16.585165791963316       -7.9782584705423432E-010
   5.0000000000000003E-002  0.94999999999999996        1.4329391312109746E-004  -4.6462212562108248E-004  -4.2145229520016249E-004   16.434876733850381       -8.1450553246487090E-010
   5.0000000000000003E-002  0.98333333333333317        1.2303109241108598E-004  -2.7351522456015400E-004  -1.1035814717407230E-004   16.246218591942782       -8.2020798139459394E-010
   8.3333333333333329E-002   1.6666666666666663E-002   3.0252262299666766E-004   2.0103251206216887E-004  -6.5071547294700120E-005   7.9333977071806769       -1.5731688308810721E-009
   8.3333333333333329E-002   5.0000000000000003E-002   2.6232905186729036E-004   4.4300126971826606E-004  -2.6759607984390752E-004   8.0388612370982866       -9.8208774793051568E-010
   8.3333333333333329E-002   8.3333333333333329E-002   2.2507705559636002E-004   5.6550838468580724E-004  -5.8032029820451279E-004   8.2959675015273930       -9.2980621119176377E-010
   8.3333333333333329E-002  0.11666666666666665        1.9033298411474565E-004   6.1545671259381535E-004  -9.4759705850243760E-004   8.7158431710329154       -8.6865921573864302E-010
   8.3333333333333329E-002  0.15000000000000002        1.5799037896318098E-004   6.2776959378693306E-004  -1.3360019219068962E-003   9.2803482411762630       -8.0100570273855531E-010
   8.3333333333333329E-002  0.18333333333333335        1.2814026813618353E-004   6.2220324335421936E-004  -1.7260968433963648E-003   9.9534420488420015       -7.2943285092663679E-010
   8.3333333333333329E-002  0.21666666666666667        1.0096925214804439E-004   6.0707230583448226E-004  -2.1063017610107445E-003   10.694305528982312       -6.5664978489421433E-010
   8.3333333333333329E-002  0.25000000000000000        7.6696336780640212E-005   5.8436437259495151E-004  -2.4686756071323167E-003   11.467465077676017       -5.8537872639485844E-010
   8.3333333333333329E-002  0.28333333333333333        5.5539588981577199E-005   5.5366047906617907E-004  -2.8066388594720571E-003   12.247479825442433       -5.1824833487146282E-010
   8.3333333333333329E-002  0.31666666666666665        3.7698037307622151E-005   5.1430327555634112E-004  -3.1141628880710552E-003   13.018882714121556       -4.5769365381032046E-010
   8.3333333333333329E-002  0.35000000000000003        2.3338061044720242E-005   4.6621636505320542E-004  -3.3857528511175398E-003   13.773667687365307       -4.0586568741257656E-010
   8.3333333333333329E-002  0.38333333333333336        1.2580355172195638E-005   4.0997007933584709E-004  -3.6166820278342466E-003   14.508402735611103       -3.6455390008821587E-010
   8.3333333333333329E-002  0.41666666666666669        5.4883738368011282E-006   3.4653790344436766E-004  -3.8031727498782581E-003   15.222024834272732       -3.3512241506133966E-010
   8.3333333333333329E-002  0.45000000000000001        2.0603300246291617E-006   2.7699337789106643E-004  -3.9424163552860695E-003   15.914485255535570       -3.1846204449556548E-010
   8.3333333333333329E-002  0.48333333333333334        2.2255192822188059E-006   2.0226613775400058E-004  -4.0324435552098088E-003   16.585999206006697       -3.1495875807592555E-010
   8.3333333333333329E-002  0.51666666666666661        5.8438364540666947E-006   1.2300334599571946E-004  -4.0719102718312517E-003   17.236605313171342       -3.2448021521211054E-010
   8.3333333333333329E-002  0.54999999999999993        1.2706132112410377E-005   3.9541723480826863E-005  -4.0598751255087745E-003   17.865841342205737       -3.4638216925807208E-010
   8.3333333333333329E-002  0.58333333333333326        2.2532893195186410E-005  -4.8030003913691094E-005  -3.9956321250090472E-003   18.472448996857548       -3.7953528818010507E-010
   8.3333333333333329E-002  0.61666666666666659        3.4969436197383020E-005  -1.3975243926966387E-004  -3.8786394274524707E-003   19.054082927106460       -4.2237205920281351E-010
   8.3333333333333329E-002  0.64999999999999991        4.9576950059278848E-005  -2.3565751004600371E-004  -3.7085619883941846E-003   19.607018576210272       -4.7295229885224721E-010
   8.3333333333333329E-002  0.68333333333333324        6.5819891911233103E-005  -3.3563792435365543E-004  -3.4854294009731591E-003   20.125845647999451       -5.2904510546708527E-010
   8.3333333333333329E-002  0.71666666666666656        8.3051092159055792E-005  -4.3932416778841559E-004  -3.2099057541626268E-003   20.603112862541952       -5.8822318196871670E-010
   8.3333333333333329E-002  0.75000000000000000        1.0049630505767090E-004  -5.4591681234383968E-004  -2.8836821379406474E-003   21.028868768284564       -6.4796524222587859E-010
   8.3333333333333329E-002  0.78333333333333333        1.1724000914192784E-004  -6.5382616475751117E-004  -2.5100439714600725E-003   21.390046549285518       -7.0576200439376180E-010
   8.3333333333333329E-002  0.81666666666666665        1.3221491147262615E-004  -7.5979850938052572E-004  -2.0947501713621530E-003   21.669727467120385       -7.5922044345810846E-010
   8.3333333333333329E-002  0.84999999999999998        1.4420137167425509E-004  -8.5689390428794017E-004  -1.6475124107609032E-003   21.846641540673915       -8.0616153162738069E-010
   8.3333333333333329E-002  0.88333333333333330        1.5185558991241780E-004  -9.3009273163438826E-004  -1.1846056667890238E-003   21.896216581518754       -8.4470723471508080E-010
   8.3333333333333329E-002  0.91666666666666663        1.5381715966059764E-004  -9.4715852744950608E-004  -7.3347485271751912E-004   21.797047181368654       -8.7335271133082149E-010
   8.3333333333333329E-002  0.94999999999999996        1.4900633177350648E-004  -8.4001601605306758E-004  -3.4050765940798621E-004   21.553183429737381       -8.9102094626147821E-010
   8.3333333333333329E-002  0.98333333333333317        1.3727243803394632E-004  -4.6679829948271352E-004  -8.2924899126730095E-005   21.258163177806892       -8.9709744667543223E-010
  0.11666666666666665        1.6666666666666663E-002   2.9685081804108776E-004   3.3485835689584203E-004  -6.8754346889641116E-005   8.7908835997677350       -1.3878712519510561E-009
  0.11666666666666665        5.0000000000000003E-002   2.5795443074385401E-004   7.2822043078147659E-004  -2.8527490025938502E-004   8.9186764260008538       -8.5819622415439500E-010
  0.11666666666666665        8.3333333333333329E-002   2.2170728553920287E-004   9.3069676981568544E-004  -6.2295828777835882E-004   9.2418626154913017       -8.1109923638633674E-010
  0.11666666666666665       0.11666666666666665        1.8758258860080269E-004   1.0161726997013395E-003  -1.0215859558185664E-003   9.7777732338124910       -7.5647914321574916E-010
  0.11666666666666665       0.15000000000000002        1.5549383804702442E-004   1.0370034292581333E-003  -1.4431309670382402E-003   10.503130419092470       -6.9658041487730138E-010
  0.11666666666666665       0.18333333333333335        1.2561087661290942E-004   1.0235571209790328E-003  -1.8636238063260771E-003   11.369920126784423       -6.3385856459430290E-010
  0.11666666666666665       0.21666666666666667        9.8209737503094017E-005   9.8977742533304575E-004  -2.2674779290153676E-003   12.323473625058279       -5.7087639303288196E-010
  0.11666666666666665       0.25000000000000000        7.3588723954321148E-005   9.4025577106421408E-004  -2.6437006395800084E-003   13.316385196919541       -5.1019828813114732E-010
  0.11666666666666665       0.28333333333333333        5.2030745879759955E-005   8.7583541595318416E-004  -2.9838037570650835E-003   14.314873482720794       -4.5428756763332689E-010
  0.11666666666666665       0.31666666666666665        3.3785506848338449E-005   7.9682774483237910E-004  -3.2809791652231310E-003   15.298595614567880       -4.0541059224963316E-010
  0.11666666666666665       0.35000000000000003        1.9055642174982762E-005   7.0425444042194476E-004  -3.5299517740634508E-003   16.257171867165326       -3.6555168354129863E-010
  0.11666666666666665       0.38333333333333336        7.9829202432521982E-006   5.9993086360877134E-004  -3.7270214815269317E-003   17.186303171904616       -3.3634017793104931E-010
  0.11666666666666665       0.41666666666666669        6.3712608619366972E-007   4.8606779924305192E-004  -3.8700214621379889E-003   18.084869638240026       -3.1899109829286454E-010
  0.11666666666666665       0.45000000000000001       -2.9892299926819874E-006   3.6480012701653388E-004  -3.9581145231015798E-003   18.953170216154547       -3.1425949407852538E-010
  0.11666666666666665       0.48333333333333334       -2.9798609858157438E-006   2.3784001250132394E-004  -3.9914679682187988E-003   19.791937662221589       -3.2240978279068216E-010
  0.11666666666666665       0.51666666666666661        5.1039009023758974E-007   1.0632284914738406E-004  -3.9708946512471890E-003   20.601735981956537       -3.4320189875799989E-010
  0.11666666666666665       0.54999999999999993        7.2609567857248026E-006  -2.9159583723137978E-005  -3.8975480166833863E-003   21.382498803810197       -3.7589697370402075E-010
  0.11666666666666665       0.58333333333333326        1.6987764684996688E-005  -1.6838391755611741E-004  -3.7727358216883590E-003   22.133107304918795       -4.1928375181521371E-010
  0.11666666666666665       0.61666666666666659        2.9340170857262285E-005  -3.1123909240278881E-004  -3.5978879806846413E-003   22.850981597072760       -4.7172432106334927E-010
  0.11666666666666665       0.64999999999999991        4.3892511148765586E-005  -4.5744785894258084E-004  -3.3746884493510215E-003   23.531680493417959       -5.3121911036679847E-010
  0.11666666666666665       0.68333333333333324        6.0132091591979674E-005  -6.0630504597458516E-004  -3.1053636017329420E-003   24.168494849232982       -5.9548758632455012E-010
  0.11666666666666665       0.71666666666666656        7.7446982377553901E-005  -7.5643310896908824E-004  -2.7931112253221681E-003   24.751998136288176       -6.6206187233908143E-010
  0.11666666666666665       0.75000000000000000        9.5117798469273736E-005  -9.0548744722785139E-004  -2.4426553092567714E-003   25.269501866001722       -7.2838821606191484E-010
  0.11666666666666665       0.78333333333333333        1.1231773786602184E-004  -1.0496250814543745E-003  -2.0609239720572668E-003   25.704383782823736       -7.9193226455720467E-010
  0.11666666666666665       0.81666666666666665        1.2812504464998026E-004  -1.1823415422471529E-003  -1.6578758743783129E-003   26.035390426276191       -8.5028229943051592E-010
  0.11666666666666665       0.84999999999999998        1.4155385316295217E-004  -1.2919148232678384E-003  -1.2475497384148797E-003   26.236457549918018       -9.0124627205590002E-010
  0.11666666666666665       0.88333333333333330        1.5161842837127122E-004  -1.3560555655020359E-003  -8.4947278779009552E-004   26.278812151902670       -9.4293789269783712E-010
  0.11666666666666665       0.91666666666666663        1.5747260408851532E-004  -1.3312462387903212E-003  -4.9055311723390392E-004   26.140187143229355       -9.7384816009904451E-010
  0.11666666666666665       0.94999999999999996        1.5872239348911678E-004  -1.1323105617736494E-003  -2.0713811566739222E-004   25.833098754845146       -9.9289932005419690E-010
  0.11666666666666665       0.98333333333333317        1.5607399566212632E-004  -5.9447396146905789E-004  -4.4750731250003709E-005   25.478920679029077       -9.9947918821494119E-010
  0.15000000000000002        1.6666666666666663E-002   2.8755064166766976E-004   4.6718592116118092E-004  -6.3573259884756465E-005   9.5791483611342976       -1.1626722713937998E-009
  0.15000000000000002        5.0000000000000003E-002   2.5025667504855408E-004   1.0170354111066764E-003  -2.6819531973137163E-004   9.7218696786902754       -7.0880947118656668E-010
  0.15000000000000002        8.3333333333333329E-002   2.1508505667038061E-004   1.3047201450633603E-003  -5.9335033855111442E-004   10.093928175820782       -6.6784558959420703E-010
  0.15000000000000002       0.11666666666666665        1.8158380266998414E-004   1.4284145974943797E-003  -9.8098799115780492E-004   10.719244446877582       -6.2094702123205447E-010
  0.15000000000000002       0.15000000000000002        1.4975834135913410E-004   1.4567690563046525E-003  -1.3914505488482973E-003   11.571403118266808       -5.7022980608223417E-010
  0.15000000000000002       0.18333333333333335        1.1988231276457555E-004   1.4306975587552117E-003  -1.7978638146943253E-003   12.592972625456285       -5.1800121483869255E-010
  0.15000000000000002       0.21666666666666667        9.2330793259546800E-005   1.3705068192751742E-003  -2.1818795602132554E-003   13.717612263160152       -4.6665861973271827E-010
  0.15000000000000002       0.25000000000000000        6.7487527362331023E-005   1.2845266324923929E-003  -2.5306571377909275E-003   14.887285600700872       -4.1858700706998153E-010
  0.15000000000000002       0.28333333333333333        4.5704013511308610E-005   1.1760618508989936E-003  -2.8350513459987287E-003   16.060313755464456       -3.7606040156901166E-010
  0.15000000000000002       0.31666666666666665        2.7279594989661324E-005   1.0474597923789079E-003  -3.0887344466148494E-003   17.211396473548611       -3.4115123833527994E-010
  0.15000000000000002       0.35000000000000003        1.2445714924562137E-005   9.0168218968058700E-004  -3.2878216583757786E-003   18.327551673801754       -3.1565116406090388E-010
  0.15000000000000002       0.38333333333333336        1.3519695720501665E-006   7.4237261865747165E-004  -3.4306214771954299E-003   19.403489181134049       -3.0100433517227243E-010
  0.15000000000000002       0.41666666666666669       -5.9420017162036165E-006   5.7330804666022464E-004  -3.5173035199600540E-003   20.438106947335928       -2.9825288723125953E-010
  0.15000000000000002       0.45000000000000001       -9.4657125446663740E-006   3.9779309979261397E-004  -3.5494436998480018E-003   21.432311135781255       -3.0799367938851019E-010
  0.15000000000000002       0.48333333333333334       -9.3290230401306469E-006   2.1826496147240969E-004  -3.5295081977281097E-003   22.387739575323373       -3.3034673152347593E-010
  0.15000000000000002       0.51666666666666661       -5.7095648331775764E-006   3.6188114836056110E-005  -3.4603717520411185E-003   23.305942228732821       -3.6494004129403179E-010
  0.15000000000000002       0.54999999999999993        1.1582883311258813E-006  -1.4778739422385777E-004  -3.3449558667087774E-003   24.187748273215071       -4.1091533474479913E-010
  0.15000000000000002       0.58333333333333326        1.0988652282812311E-005  -3.3348045989365477E-004  -3.1860437367497215E-003   25.032706379311492       -4.6695436840132887E-010
  0.15000000000000002       0.61666666666666659        2.3441686409879712E-005  -5.2073616923483670E-004  -2.9862979900719777E-003   25.838566509421781       -5.3132496926483475E-010
  0.15000000000000002       0.64999999999999991        3.8114387238567311E-005  -7.0896571059935495E-004  -2.7484826285203287E-003   26.600794613081732       -6.0194481257130894E-010
  0.15000000000000002       0.68333333333333324        5.4528101387928364E-005  -8.9672186831815789E-004  -2.4758728422232795E-003   27.312104850778685       -6.7646159160328345E-010
  0.15000000000000002       0.71666666666666656        7.2118122749154160E-005  -1.0813189109381179E-003  -2.1728226390940646E-003   27.961979759526542       -7.5234574646587671E-010
  0.15000000000000002       0.75000000000000000        9.0231612454632132E-005  -1.2584341796056191E-003  -1.8454460703091207E-003   28.536147029512957       -8.2699156030152654E-010
  0.15000000000000002       0.78333333333333333        1.0813970656691270E-004  -1.4215060418243130E-003  -1.5023497688464807E-003   29.016026814058499       -8.9782166770580041E-010
  0.15000000000000002       0.81666666666666665        1.2506825416168922E-004  -1.5605274796678394E-003  -1.1553310271085798E-003   29.378339396002897       -9.6238999928999203E-010
  0.15000000000000002       0.84999999999999998        1.4025079172236380E-004  -1.6594628800869157E-003  -8.1992323103886031E-004   29.595572634908233       -1.0184780987326780E-009
  0.15000000000000002       0.88333333333333330        1.5301203217506188E-004  -1.6909046068385638E-003  -5.1560314895542254E-004   29.639306752712880       -1.0641807521999391E-009
  0.15000000000000002       0.91666666666666663        1.6291029520940236E-004  -1.6056669993185363E-003  -2.6525308562926671E-004   29.491385801672138       -1.0979769446070597E-009
  0.15000000000000002       0.94999999999999996        1.7001394810827936E-004  -1.3138812552013152E-003  -9.2676702965026770E-005   29.174071638944227       -1.1187833129540359E-009
  0.15000000000000002       0.98333333333333317        1.7544206126711523E-004  -6.5359607709324498E-004  -1.4371348949728252E-005   28.820830850093884       -1.1259881157891019E-009
  0.18333333333333335        1.6666666666666663E-002   2.7527370773407911E-004   5.8339079441789522E-004  -5.2631647758962183E-005   10.300818299420499       -9.0054799294775334E-010
  0.18333333333333335        5.0000000000000003E-002   2.3980280805558168E-004   1.2803915364834842E-003  -2.2757064167788440E-004   10.451234315695457       -5.3589117865460167E-010
  0.18333333333333335        8.3333333333333329E-002   2.0580234828066409E-004   1.6524217862926402E-003  -5.1347342970553338E-004   10.853245908870370       -5.0193199076231654E-010
  0.18333333333333335       0.11666666666666665        1.7299501725834003E-004   1.8148874286233476E-003  -8.6001028703337561E-004   11.537192834826504       -4.6385248940461477E-010
  0.18333333333333335       0.15000000000000002        1.4152822841273274E-004   1.8497016120517830E-003  -1.2289531508632660E-003   12.475961852883971       -4.2362773358672889E-010
  0.18333333333333335       0.18333333333333335        1.1180004842660598E-004   1.8075863325589315E-003  -1.5923612461557664E-003   13.606194457690767       -3.8340192999586353E-010
  0.18333333333333335       0.21666666666666667        8.4291547926264795E-005   1.7157540243149217E-003  -1.9304815080378275E-003   14.853015678726456       -3.4538968733677233E-010
  0.18333333333333335       0.25000000000000000        5.9471129113155274E-005   1.5873625498957695E-003  -2.2297870786101475E-003   16.149755215054849       -3.1177679014893211E-010
  0.18333333333333335       0.28333333333333333        3.7751341946908395E-005   1.4293198214587676E-003  -2.4814867815496659E-003   17.447661129033222       -2.8462592959604960E-010
  0.18333333333333335       0.31666666666666665        1.9467302295509359E-005   1.2469370967235530E-003  -2.6805389769651257E-003   18.716566141407959       -2.6579211487992582E-010
  0.18333333333333335       0.35000000000000003        4.8609074894203688E-006   1.0457333748207047E-003  -2.8249802743463824E-003   19.940743093627578       -2.5685088170940285E-010
  0.18333333333333335       0.38333333333333336       -5.9300351152877722E-006   8.3148559371373190E-004  -2.9153446345988746E-003   21.113854862754103       -2.5903953786675371E-010
  0.18333333333333335       0.41666666666666669       -1.2873353593553204E-005   6.0957575551408457E-004  -2.9540432946027978E-003   22.234956030050864       -2.7320887089135604E-010