 TITLE = "Cavity_simu"
 Variables="X","Y","P","U","V","T","div"
 Zone I=          30 , J=          30 , F = POINT
   1.6666666666666663E-002   1.6666666666666663E-002   3.0149846601979093E-004   1.8785163952833352E-005  -1.8785196097784343E-005   6.0225436333487963       -1.9286970594830505E-009
   1.6666666666666663E-002   5.0000000000000003E-002   2.5925018499806302E-004   4.7367926812456028E-005  -8.4938341935290851E-005   6.0644695116887766       -1.3756359684181929E-009
   1.6666666666666663E-002   8.3333333333333329E-002   2.1995251607393709E-004   6.0765121629345984E-005  -1.9307143496239405E-004   6.1578325261531708       -1.2994821017853209E-009
   1.6666666666666663E-002  0.11666666666666665        1.8396700434718306E-004   6.5224261451404157E-005  -3.1906085984075662E-004   6.3046210243107250       -1.2083746442695387E-009
   1.6666666666666663E-002  0.15000000000000002        1.5116836874011250E-004   6.5970321486102747E-005  -4.5025548132440123E-004   6.4989511671083191       -1.1043936199578441E-009
   1.6666666666666663E-002  0.18333333333333335        1.2143269241981976E-004   6.5608210915066892E-005  -5.8183404862903801E-004   6.7297471481117173       -9.8981440752043959E-010
   1.6666666666666663E-002  0.21666666666666667        9.4758053593970573E-005   6.4960109002070013E-005  -7.1240239949377617E-004   6.9842837009111527       -8.6704166502721280E-010
   1.6666666666666663E-002  0.25000000000000000        7.1242806167393048E-005   6.4007919163006056E-005  -8.4137045441855761E-004   7.2510980893500205       -7.3854065788317436E-010
   1.6666666666666663E-002  0.28333333333333333        5.1032957316590111E-005   6.2483277682026439E-005  -9.6786167368541213E-004   7.5215293544673747       -6.0676866699485577E-010
   1.6666666666666663E-002  0.31666666666666665        3.4278308773028026E-005   6.0139832217135030E-005  -1.0904848015992044E-003   7.7899430670347476       -4.7410918160156745E-010
   1.6666666666666663E-002  0.35000000000000003        2.1103749371645379E-005   5.6836564150993711E-005  -1.2074612115826719E-003   8.0531599744273752       -3.4281113754988657E-010
   1.6666666666666663E-002  0.38333333333333336        1.1591870504234352E-005   5.2535324913053376E-005  -1.3168331099424929E-003   8.3096424330362169       -2.1493530523095106E-010
   1.6666666666666663E-002  0.41666666666666669        5.7726874116037066E-006   4.7269114232739740E-005  -1.4166375542090269E-003   8.5587855699356457       -9.2309149907210397E-011
   1.6666666666666663E-002  0.45000000000000001        3.6178936301836021E-006   4.1105259936457152E-005  -1.5050119295248942E-003   8.8004281501533690        2.3508934382521218E-011
   1.6666666666666663E-002  0.48333333333333334        5.0379522653373485E-006   3.4113015669570625E-005  -1.5802302025515137E-003   9.0345555112313551        1.3125555677062639E-010
   1.6666666666666663E-002  0.51666666666666661        9.8803985380491151E-006   2.6340068353762258E-005  -1.6406832805542827E-003   9.2611215592157183        2.2997827752412048E-010
   1.6666666666666663E-002  0.54999999999999993        1.7927668007289552E-005   1.7800006144676465E-005  -1.6848233459024018E-003   9.4799278040082395        3.1904090111965766E-010
   1.6666666666666663E-002  0.58333333333333326        2.8892980403298727E-005   8.4702444489734942E-006  -1.7110935845434014E-003   9.6905242998901180        3.9811811085223997E-010
   1.6666666666666663E-002  0.61666666666666659        4.2413291000681385E-005  -1.7027166034919697E-006  -1.7178610979672667E-003   9.8921184056978504        4.6717887257309229E-010
   1.6666666666666663E-002  0.64999999999999991        5.8038809704723086E-005  -1.2795678187385245E-005  -1.7033626866157529E-003   10.083486654960756        5.2645932101594295E-010
   1.6666666666666663E-002  0.68333333333333324        7.5218745744629092E-005  -2.4903905045417677E-005  -1.6656630850015231E-003   10.262884570773254        5.7642628972960630E-010
   1.6666666666666663E-002  0.71666666666666656        9.3282469870558740E-005  -3.8141507006824483E-005  -1.6026176530466248E-003   10.427943109339454        6.1773307519566445E-010
   1.6666666666666663E-002  0.75000000000000000        1.1141405727665744E-004  -5.2641949249765360E-005  -1.5118341756416480E-003   10.575534028958934        6.5117013951093705E-010
   1.6666666666666663E-002  0.78333333333333333        1.2861637696532429E-004  -6.8537408946994267E-005  -1.3906547952985057E-003   10.701589529677584        6.7761282782768939E-010
   1.6666666666666663E-002  0.81666666666666665        1.4365940451999549E-004  -8.5863089800790963E-005  -1.2362542736243528E-003   10.800895338269585        6.9796922928799798E-010
   1.6666666666666663E-002  0.84999999999999998        1.5500854771791024E-004  -1.0426588916226143E-004  -1.0461252711429763E-003   10.866990346531061        7.1313022240865331E-010
   1.6666666666666663E-002  0.88333333333333330        1.6073792172843491E-004  -1.2225012092724735E-004  -8.1960923710255906E-004   10.892614104797259        7.2392428683565324E-010
   1.6666666666666663E-002  0.91666666666666663        1.5846413846763046E-004  -1.3534043788758984E-004  -5.6201865403766892E-004   10.871907484375036        7.3107888839962776E-010
   1.6666666666666663E-002  0.94999999999999996        1.4542533443420659E-004  -1.3166856666984098E-004  -2.9500962504242374E-004   10.807345770587579        7.3518997487087567E-010
   1.6666666666666663E-002  0.98333333333333317        1.1908802022980211E-004  -8.1670510781362989E-005  -8.1670523059708240E-005   10.727909262417700        7.3670071518844304E-010
   5.0000000000000003E-002   1.6666666666666663E-002   3.0263881951390101E-004   8.6785137415008520E-005  -4.9214831772630434E-005   7.0081706839454885       -1.3357973178106108E-009
   5.0000000000000003E-002   5.0000000000000003E-002   2.6146959016141080E-004   2.0020620417519268E-004  -2.0390002794324472E-004   7.0876271607308139       -8.3086219328232236E-010
   5.0000000000000003E-002   8.3333333333333329E-002   2.2326634720555371E-004   2.5611798503114984E-004  -4.4395814714124336E-004   7.2718739862729125       -7.8165341733937854E-010
   5.0000000000000003E-002  0.11666666666666665        1.8792814064908794E-004   2.7742608106101066E-004  -7.2552347216050779E-004   7.5663247702251404       -7.2366283625224792E-010
   5.0000000000000003E-002  0.15000000000000002        1.5538739024023200E-004   2.8236263985694925E-004  -1.0229230502350071E-003   7.9583708483431881       -6.5823035390322193E-010
   5.0000000000000003E-002  0.18333333333333335        1.2566027310005433E-004   2.8072497847081380E-004  -1.3228536245110706E-003   8.4240882979403615       -5.8680802578203739E-010
   5.0000000000000003E-002  0.21666666666666667        9.8844213560529522E-005   2.7614520778104063E-004  -1.6185871892240669E-003   8.9363637543416772       -5.1091690947413504E-010
   5.0000000000000003E-002  0.25000000000000000        7.5086958867151877E-005   2.6906763124677870E-004  -1.9058639876387293E-003   9.4713165914032942       -4.3210279104810567E-010
   5.0000000000000003E-002  0.28333333333333333        5.4554172736728953E-005   2.5884415998993969E-004  -2.1807933982519682E-003   10.011441510564852       -3.5189234338928177E-010
   5.0000000000000003E-002  0.31666666666666665        3.7404407867749716E-005   2.4480898712778322E-004  -2.4392003359654355E-003   10.545780981908296       -2.7175169666632248E-010
   5.0000000000000003E-002  0.35000000000000003        2.3770509200117727E-005   2.2665426530230144E-004  -2.6767108034059387E-003   11.068449665902609       -1.9304887896587353E-010
   5.0000000000000003E-002  0.38333333333333336        1.3745076499089296E-005   2.0444658177251441E-004  -2.8890678775204993E-003   11.576794152885958       -1.1702144635250544E-010
   5.0000000000000003E-002  0.41666666666666669        7.3692207125388691E-006   1.7850387724871925E-004  -3.0724094609463383E-003   12.069906574639887       -4.4750043080854507E-011
   5.0000000000000003E-002  0.45000000000000001        4.6248336000470629E-006   1.4924408208481004E-004  -3.2234086723062776E-003   12.547664750000358        2.2861818341213258E-011
   5.0000000000000003E-002  0.48333333333333334        5.4302192711929103E-006   1.1705612747758712E-004  -3.3392723288572217E-003   13.010180642149184        8.5102042600426753E-011
   5.0000000000000003E-002  0.51666666666666661        9.6379840039068576E-006   8.2215461052929706E-005  -3.4176377455650674E-003   13.457476759359031        1.4145825353098496E-010
   5.0000000000000003E-002  0.54999999999999993        1.7033391914123236E-005   4.4850048093758155E-005  -3.4564231001635755E-003   13.889258973464939        1.9161988814263287E-010
   5.0000000000000003E-002  0.58333333333333326        2.7331322443222035E-005   4.9505197854943466E-006  -3.4536831597373023E-003   14.304720831167529        2.3547367072711267E-010
   5.0000000000000003E-002  0.61666666666666659        4.0170421028429782E-005  -3.7591010404168297E-005  -3.4075076049515729E-003   14.702358293369587        2.7309185858873097E-010
   5.0000000000000003E-002  0.64999999999999991        5.5103701029285353E-005  -8.2933147307093254E-005  -3.3159802271919793E-003   15.079789678500573        3.0471336001300364E-010
   5.0000000000000003E-002  0.68333333333333324        7.1585372953275996E-005  -1.3124527622356301E-004  -3.1772009595363894E-003   15.433571093377308        3.3071898084685580E-010
   5.0000000000000003E-002  0.71666666666666656        8.8953760791946193E-005  -1.8267929898572376E-004  -2.9893671970595802E-003   15.758982017840093        3.5160145281376565E-010
   5.0000000000000003E-002  0.75000000000000000        1.0640971518057592E-004  -2.3732761523057022E-004  -2.7509271833642342E-003   16.049738649339563        3.6793243625432570E-010
   5.0000000000000003E-002  0.78333333333333333        1.2298923173466767E-004  -2.9508479928069039E-004  -2.4608734727754834E-003   16.297590701469218        3.8032811448818205E-010
   5.0000000000000003E-002  0.81666666666666665        1.3752912150577043E-004  -3.5522258564572076E-004  -2.1193670725155925E-003   16.491809722851642        3.8941491004029771E-010
   5.0000000000000003E-002  0.84999999999999998        1.4862836010025865E-004  -4.1528114383499262E-004  -1.7291212878741138E-003   16.618781665256844        3.9579730118366463E-010
   5.0000000000000003E-002  0.88333333333333330        1.5462135463864118E-004  -4.6846183409242305E-004  -1.2984103168619471E-003   16.662521729709464        4.0002881909750876E-010
   5.0000000000000003E-002  0.91666666666666663        1.5361421624154292E-004  -4.9779612611071345E-004  -8.4733346091154268E-004   16.608575209713564        4.0258770796219867E-010
   5.0000000000000003E-002  0.94999999999999996        1.4370157754220285E-004  -4.6327362010262013E-004  -4.2028171037230937E-004   16.458095573654546        4.0385797483999397E-010
   5.0000000000000003E-002  0.98333333333333317        1.2352390445763349E-004  -2.7351362326665131E-004  -1.1017260843920246E-004   16.269719201244911        4.0411662731443254E-010
   8.3333333333333329E-002   1.6666666666666663E-002   3.0072309536806021E-004   2.0097199959135385E-004  -6.4972072493352481E-005   7.9341126886931530       -1.1895809376612221E-009
   8.3333333333333329E-002   5.0000000000000003E-002   2.6054577549680538E-004   4.4300866872142052E-004  -2.6727627117482955E-004   8.0446562887120727       -7.3153064335251816E-010
   8.3333333333333329E-002   8.3333333333333329E-002   2.2332579414063820E-004   5.6598503458792158E-004  -5.7988771658978779E-004   8.3115066801982156       -6.8655118569405094E-010
   8.3333333333333329E-002  0.11666666666666665        1.8863803790398006E-004   6.1661994708110852E-004  -9.4738335424501873E-004   8.7450433574003767       -6.3399010173659232E-010
   8.3333333333333329E-002  0.15000000000000002        1.5638076108073044E-004   6.2959184891866007E-004  -1.3364068944354281E-003   9.3259936477157677       -5.7510270851102163E-010
   8.3333333333333329E-002  0.18333333333333335        1.2664643029571739E-004   6.2446499912567697E-004  -1.7274455887323493E-003   10.016910916746831       -5.1124355443521452E-010
   8.3333333333333329E-002  0.21666666666666667        9.9620831623095486E-005   6.0943254633591209E-004  -2.1087394174423056E-003   10.775541100577566       -4.4382458472269626E-010
   8.3333333333333329E-002  0.25000000000000000        7.5520859786139063E-005   5.8642496391407561E-004  -2.4721073196017555E-003   11.565188570161883       -3.7427235442810680E-010
   8.3333333333333329E-002  0.28333333333333333        5.4561752197578308E-005   5.5502596236129092E-004  -2.8107170683980545E-003   12.359534240312842       -3.0398589374869278E-010
   8.3333333333333329E-002  0.31666666666666665        3.6939025425184175E-005   5.1463693710968440E-004  -3.1183199024032958E-003   13.142580269744395       -2.3429742347647053E-010
   8.3333333333333329E-002  0.35000000000000003        2.2814453515995098E-005   4.6528727184905021E-004  -3.3892704059170289E-003   13.906067061769919       -1.6643719735753848E-010
   8.3333333333333329E-002  0.38333333333333336        1.2302505109247164E-005   4.0768347017052496E-004  -3.6187832363807600E-003   14.646504116971219       -1.0150442205508758E-010
   8.3333333333333329E-002  0.41666666666666669        5.4585194022801555E-006   3.4294411373338705E-004  -3.8031187828995996E-003   15.362903081628788       -4.0444091652103165E-011
   8.3333333333333329E-002  0.45000000000000001        2.2709272513773930E-006   2.7227601870163205E-004  -3.9395917454138609E-003   16.055384063017719        1.5969639239471478E-011
   8.3333333333333329E-002  0.48333333333333334        2.6582850108108156E-006   1.9671545599094349E-004  -4.0264193508084516E-003   16.724399389926724        6.7145141226590543E-011
   8.3333333333333329E-002  0.51666666666666661        6.4698111124716702E-006   1.1698330360596684E-004  -4.0624810983939021E-003   17.370272160613151        1.1268034644457484E-010
   8.3333333333333329E-002  0.54999999999999993        1.3486831370580327E-005   3.3458685196084513E-005  -4.0470722134820294E-003   17.992853641463459        1.5236525149203706E-010
   8.3333333333333329E-002  0.58333333333333326        2.3422425199840903E-005  -5.3752258186449077E-005  -3.9797180002780711E-003   18.591214119750720        1.8617801701356629E-010
   8.3333333333333329E-002  0.61666666666666659        3.5917375948826861E-005  -1.4469099689669079E-004  -3.8600907754490366E-003   19.163345077375521        2.1427435433624131E-010
   8.3333333333333329E-002  0.64999999999999991        5.0531783181456754E-005  -2.3940571734338442E-004  -3.6880455795290125E-003   19.705868940645690        2.3696870160572203E-010
   8.3333333333333329E-002  0.68333333333333324        6.6732918835440497E-005  -3.3782479018729561E-004  -3.4637727443993993E-003   20.213742682659912        2.5470969083896122E-010
   8.3333333333333329E-002  0.71666666666666656        8.3880746976805934E-005  -4.3964594674592288E-004  -3.1880603250676095E-003   20.679917858387757        2.6804993814855127E-010
   8.3333333333333329E-002  0.75000000000000000        1.0121280902057035E-004  -5.4418765281922599E-004  -2.8626736323274860E-003   21.094895777052468        2.7761301417406070E-010
   8.3333333333333329E-002  0.78333333333333333        1.1783006962119954E-004  -6.5004990522906844E-004  -2.4909021775469955E-003   21.446116254115537        2.8405888925775447E-010
   8.3333333333333329E-002  0.81666666666666665        1.3268573567464694E-004  -7.5425408195448876E-004  -2.0784119531855414E-003   21.717201440241450        2.8805001786591511E-010
   8.3333333333333329E-002  0.84999999999999998        1.4458259146553834E-004  -8.5021096592238690E-004  -1.6346963967061681E-003   21.887397383739405        2.9021917334615122E-010
   8.3333333333333329E-002  0.88333333333333330        1.5219696153020645E-004  -9.2327142312561856E-004  -1.1756679336446397E-003   21.932509001199598        2.9114101407490267E-010
   8.3333333333333329E-002  0.91666666666666663        1.5417972689531258E-004  -9.4145949287673678E-004  -7.2827181071140031E-004   21.831193752238413        2.9130795345388982E-010
   8.3333333333333329E-002  0.94999999999999996        1.4944663435516293E-004  -8.3662135821239254E-004  -3.3831243322708448E-004   21.587040327283177        2.9111156367445101E-010
   8.3333333333333329E-002  0.98333333333333317        1.3782568642625335E-004  -4.6613680863760417E-004  -8.2450588514195410E-005   21.292493167580123        2.9083007616753642E-010
  0.11666666666666665        1.6666666666666663E-002   2.9504747058040911E-004   3.3449075941499747E-004  -6.8546723787355128E-005   8.7915291984922952       -9.9784290292365130E-010
  0.11666666666666665        5.0000000000000003E-002   2.5617011538903883E-004   7.2781548881433540E-004  -2.8456816372154643E-004   8.9259579557401683       -6.0299211283865173E-010
  0.11666666666666665        8.3333333333333329E-002   2.1995463462533987E-004   9.3101343668059138E-004  -6.2179198356737263E-004   9.2618016950411555       -5.6343804795411234E-010
  0.11666666666666665       0.11666666666666665        1.8588526796059908E-004   1.0175923058954738E-003  -1.0202971468494739E-003   9.8153949818106501       -5.1783850124609287E-010
  0.11666666666666665       0.15000000000000002        1.5388074038057362E-004   1.0394856840735900E-003  -1.4421398371996159E-003   10.561968921779629       -4.6734407142812184E-010
  0.11666666666666665       0.18333333333333335        1.2411204323010418E-004   1.0267331580742648E-003  -1.8632631697875254E-003   11.451657257660774       -4.1318844873350358E-010
  0.11666666666666665       0.21666666666666667        9.6854170196033663E-005   9.9306946269274790E-004  -2.2678744451314009E-003   12.427904548329048       -3.5664786922351421E-010
  0.11666666666666665       0.25000000000000000        7.2403610918224257E-005   9.4299533377616672E-004  -2.6447138537532924E-003   13.441711584566272       -2.9900007296468356E-010
  0.11666666666666665       0.28333333333333333        5.1041303733647989E-005   8.7737731568565376E-004  -2.9850258484558152E-003   14.458169955705188       -2.4148375660226762E-010
  0.11666666666666665       0.31666666666666665        3.3014549257749572E-005   7.9665271821141581E-004  -3.2817901649604799E-003   15.456274692323936       -1.8526163068910417E-010
  0.11666666666666665       0.35000000000000003        1.8522270045793385E-005   7.0204637033736722E-004  -3.5296145529932045E-003   16.425350893077930       -1.3138829867836987E-010
  0.11666666666666665       0.38333333333333336        7.7003011684867701E-006   5.9561603018851031E-004  -3.7247933890376898E-003   17.361062245171066       -8.0784926491384024E-011
  0.11666666666666665       0.41666666666666669        6.0988275097551067E-007   4.7981244415095558E-004  -3.8652587372369866E-003   18.262430163964623       -3.4221482852342389E-011
  0.11666666666666665       0.45000000000000001       -2.7672457500978244E-006   3.5697324430717129E-004  -3.9503513315958493E-003   19.130023369881354        7.6949286786226478E-012
  0.11666666666666665       0.48333333333333334       -2.5267367670168466E-006   2.2895574414465294E-004  -3.9804612377048899E-003   19.964937407606691        4.4527377390714967E-011
  0.11666666666666665       0.51666666666666661        1.1648458413274217E-006   9.6978763462651936E-005  -3.9566352331237070E-003   20.768160877943426        7.6014692153639207E-011
  0.11666666666666665       0.54999999999999993        8.0767694498740676E-006  -3.8335364626562103E-005  -3.8802455206840237E-003   21.540084840533726        1.0207543968063226E-010
  0.11666666666666665       0.58333333333333326        1.7917371162703624E-005  -1.7677023802231836E-004  -3.7527876948390457E-003   22.280056964395040        1.2280645250717370E-010
  0.11666666666666665       0.61666666666666659        3.0331631296503901E-005  -3.1824465916727531E-004  -3.5758432665327594E-003   22.985958021366208        1.3847323808435785E-010
  0.11666666666666665       0.64999999999999991        4.4893055653859653E-005  -4.6252643614770513E-004  -3.3512140690577386E-003   23.653797659210980        1.4949207583631052E-010
  0.11666666666666665       0.68333333333333324        6.1091882694954566E-005  -6.0897398064535817E-004  -3.0812169816320542E-003   24.277314236214373        1.5640440678699186E-010
  0.11666666666666665       0.71666666666666656        7.8323143048034913E-005  -7.5630762682607293E-004  -2.7691185164421248E-003   24.847539476266977        1.5984635837185124E-010
  0.11666666666666665       0.75000000000000000        9.5878807186860747E-005  -9.0234122847346722E-004  -2.4196899390141208E-003   25.352270040357233        1.6051485488000061E-010
  0.11666666666666665       0.78333333333333333        1.1294812385767132E-004  -1.0434813228346906E-003  -2.0398763858460894E-003   25.775405276804438        1.5913275905332647E-010
  0.11666666666666665       0.81666666666666665        1.2862984268566065E-004  -1.1735865006405823E-003  -1.6396027591215527E-003   26.096240258012656        1.5641482206674162E-010
  0.11666666666666665       0.84999999999999998        1.4196148230994626E-004  -1.2814060097854963E-003  -1.2327908382563954E-003   26.289241241833071        1.5303568308422388E-010
  0.11666666666666665       0.88333333333333330        1.5197974238482359E-004  -1.3451685486848431E-003  -8.3872711716229901E-004   26.326049042074906        1.4960155163279421E-010
  0.11666666666666665       0.91666666666666663        1.5785354699933020E-004  -1.3217703710914142E-003  -4.8391522167701937E-004   26.184526668485514        1.4662651648400526E-010
  0.11666666666666665       0.94999999999999996        1.5918962163495966E-004  -1.1260777239742495E-003  -2.0410734062546320E-004   25.876805002698188        1.4451421222888561E-010
  0.11666666666666665       0.98333333333333317        1.5667920653603771E-004  -5.9261850181314166E-004  -4.4031111900935050E-005   25.523140307488312        1.4354550317494108E-010
  0.15000000000000002        1.6666666666666663E-002   2.8576273187235119E-004   4.6629366783978299E-004  -6.3256213973836376E-005   9.5791204104472936       -7.6234145428635824E-010
  0.15000000000000002        5.0000000000000003E-002   2.4848970162518131E-004   1.0158645620240399E-003  -2.6708680250058284E-004   9.7298564341091218       -4.4641038955683943E-010
  0.15000000000000002        8.3333333333333329E-002   2.1334809004237693E-004   1.3044976101551239E-003  -5.9139626310999050E-004   10.117079076260181       -4.1341924848781186E-010
  0.15000000000000002       0.11666666666666665        1.7989929692426991E-004   1.4297170228471595E-003  -9.7850002143627830E-004   10.763483436584847       -3.7623443770173903E-010
  0.15000000000000002       0.15000000000000002        1.4815478105149467E-004   1.4595435019086464E-003  -1.3888398941612171E-003   11.640868856841340       -3.3588328646194654E-010
  0.15000000000000002       0.18333333333333335        1.1838960732000797E-004   1.4344136590131304E-003  -1.7954549055117764E-003   12.689583471218683       -2.9345702950989150E-010
  0.15000000000000002       0.21666666666666667        9.0978237196377403E-005   1.3743367554216765E-003  -2.1797914457251169E-003   13.841014305771207       -2.5007198915794060E-010
  0.15000000000000002       0.25000000000000000        6.6303422809728545E-005   1.2875276288113044E-003  -2.5287516434097830E-003   15.035199619953552       -2.0682954654516195E-010
  0.15000000000000002       0.28333333333333333        4.4715752316267728E-005   1.1773526411783563E-003  -2.8329472844366172E-003   16.229098114715342       -1.6477763077615837E-010
  0.15000000000000002       0.31666666666666665        2.6513036463927088E-005   1.0463723150876006E-003  -3.0858779022408154E-003   17.396613962471442       -1.2487551704493116E-010
  0.15000000000000002       0.35000000000000003        1.1923228653137207E-005   8.9786404702872657E-004  -3.2835907966004716E-003   18.524423181869402       -8.7964762210401837E-011
  0.15000000000000002       0.38333333333333336        1.0893401925982439E-006   7.3582443565620506E-004  -3.4244380486298225E-003   19.607220408057206       -5.4748939756765758E-011
  0.15000000000000002       0.41666666666666669       -5.9389387550349487E-006   5.6435683136487626E-004  -3.5087254963711055E-003   20.644121609885772       -2.5782494628839858E-011
  0.15000000000000002       0.45000000000000001       -9.2036420070931311E-006   3.8701852611966974E-004  -3.5382225719349479E-003   21.636422445799276       -1.4681029829322068E-012
  0.15000000000000002       0.48333333333333334       -8.8281560971522066E-006   2.0640392022269470E-004  -3.5156061225714830E-003   22.586274471678546        1.7943678660981011E-011
  0.15000000000000002       0.51666666666666661       -5.0028489355015341E-006   2.4042422981391108E-005  -3.4439439599020455E-003   23.495821636371574        3.2358318281799914E-011
  0.15000000000000002       0.54999999999999993        2.0274804196735440E-006  -1.5942243621271706E-004  -3.3263102560694095E-003   24.366525319127383        4.1845776843629778E-011
  0.15000000000000002       0.58333333333333326        1.1969792336325419E-005  -3.4385929336583517E-004  -3.1655919497618496E-003   25.198568309107095        4.6644271778362167E-011
  0.15000000000000002       0.61666666666666659        2.4480740765286852E-005  -5.2918080152379978E-004  -2.9645111744501405E-003   25.990310085752427        4.7153298626811946E-011
  0.15000000000000002       0.64999999999999991        3.9157462772885535E-005  -7.1486899531068501E-004  -2.7258616640884253E-003   26.737786679595846        4.3915271592809280E-011
  0.15000000000000002       0.68333333333333324        5.5524996070942760E-005  -8.9955215544042016E-004  -2.4529380110993914E-003   27.434239288396189        3.7588826148904353E-011
  0.15000000000000002       0.71666666666666656        7.3025953538174214E-005  -1.0806437734517543E-003  -2.1501221484893115E-003   28.069639895795365        2.8916364094855318E-011
  0.15000000000000002       0.75000000000000000        9.1018804179465181E-005  -1.2539790273653991E-003  -1.8235767742669248E-003   28.630179148744642        1.8689060715670891E-011
  0.15000000000000002       0.78333333333333333        1.0879046484619251E-004  -1.4132567518721361E-003  -1.4819770937381156E-003   29.097725424039840        7.7111112634087320E-012
  0.15000000000000002       0.81666666666666665        1.2558711862405904E-004  -1.5488727633339969E-003  -1.1371890233980591E-003   29.449437186105545       -3.2347267225896204E-012
  0.15000000000000002       0.84999999999999998        1.4066597249698214E-004  -1.6453495631373032E-003  -8.0477112333804987E-004   29.658216199028384       -1.3419069674891482E-011
  0.15000000000000002       0.88333333333333330        1.5337524073014396E-004  -1.6759459344993593E-003  -5.0411390081542154E-004   29.695981936814228       -2.2194071233605506E-011
  0.15000000000000002       0.91666666666666663        1.6329052224387110E-004  -1.5921042659172262E-003  -2.5781451157675408E-004   29.544731700824780       -2.9016853156371702E-011
  0.15000000000000002       0.94999999999999996        1.7048474983659640E-004  -1.3042708244740144E-003  -8.9095393491793917E-005   29.226485873324943       -3.3467504375467305E-011
  0.15000000000000002       0.98333333333333317        1.7606815606496708E-004  -6.5012331589175845E-004  -1.3473703982421836E-005   28.873745647487162       -3.5261101330452682E-011
  0.18333333333333335        1.6666666666666663E-002   2.7353217594956562E-004   5.8176524178476347E-004  -5.2215380762389169E-005   10.299182356953203       -4.8513324911111932E-010
  0.18333333333333335        5.0000000000000003E-002   2.3808263397725261E-004   1.2780953533372472E-003  -2.2608719011096243E-004   10.458788394856095       -2.6314283130962624E-010
  0.18333333333333335        8.3333333333333329E-002   2.0410936316275335E-004   1.6512525068258163E-003  -5.1076344016471676E-004   10.878002145597822       -2.3778327223888951E-010
  0.18333333333333335       0.11666666666666665        1.7135032929841605E-004   1.8156491654826037E-003  -8.5634674177474679E-004   11.585736410940349       -2.1037393875544819E-010
  0.18333333333333335       0.15000000000000002        1.3995993965306461E-004   1.8523384486150260E-003  -1.2247339767965293E-003   12.552883211973754       -1.8180217747909566E-010
  0.18333333333333335       0.18333333333333335        1.1033842201213547E-004   1.8114153684497614E-003  -1.5879156376579849E-003   13.713597269181831       -1.5299774468180427E-010
  0.18333333333333335       0.21666666666666667        8.2967114893442600E-005   1.7197151278957696E-003  -1.9259591930457353E-003   14.990426975388843       -1.2489526426961994E-010
  0.18333333333333335       0.25000000000000000        5.8314442326639466E-005   1.5902687672942305E-003  -2.2251185176546283E-003   16.314485907767516       -9.8395607633916526E-011
  0.18333333333333335       0.28333333333333333        3.6792874824100940E-005   1.4300953786579248E-003  -2.4764067616624731E-003   17.635427958348764       -7.4328303928394845E-011
  0.18333333333333335       0.31666666666666665        1.8736217987620120E-005   1.2448125623427597E-003  -2.6746591355496520E-003   18.922139949268409       -5.3417510866016205E-011
  0.18333333333333335       0.35000000000000003        4.3822048996636658E-006   1.0403642301087131E-003  -2.8178866765670271E-003   20.158486631597668       -3.6255373703220073E-011
  0.18333333333333335       0.38333333333333336       -6.1394817968348296E-006   8.2297751377211417E-004  -2.9066926891044968E-003   21.338126466811154       -2.3286408608672038E-011
  0.18333333333333335       0.41666666666666669       -1.2808658692569938E-005   5.9842529521864150E-004  -2.9436267853099585E-003   22.460408997888365       -1.4806362516259219E-011