 TITLE = "Cavity_simu"
 Variables="X","Y","P","U","V","T","div"
 Zone I=          30 , J=          30 , F = POINT
   1.6666666666666663E-002   1.6666666666666663E-002   3.0554050456482767E-004   1.7828700896320325E-005  -1.7828556481990923E-005   5.9829197518473816        8.6648597641576786E-009
   1.6666666666666663E-002   5.0000000000000003E-002   2.6312905071656779E-004   4.6025161302822059E-005  -8.1682167708324707E-005   6.0214026184324467        6.3935087515031019E-009
   1.6666666666666663E-002   8.3333333333333329E-002   2.2349378416922306E-004   5.9578727451264121E-005  -1.8728584564714818E-004   6.1079025248465673        6.2554070113900184E-009
   1.6666666666666663E-002  0.11666666666666665        1.8702271776693919E-004   6.4323699945767525E-005  -3.1118806760695519E-004   6.2452543728621777        6.0708264652299671E-009
   1.6666666666666663E-002  0.15000000000000002        1.5360892366242593E-004   6.5411590857954931E-005  -4.4092315993387546E-004   6.4289839411895890        5.8377816660598603E-009
   1.6666666666666663E-002  0.18333333333333335        1.2314377331964089E-004   6.5480101116747357E-005  -5.7181466204245419E-004   6.6496256174576791        5.5541857493443536E-009
   1.6666666666666663E-002  0.21666666666666667        9.5646238352685962E-005   6.5380422202631730E-005  -7.0267500582443776E-004   6.8959260094762813        5.2180579787619585E-009
   1.6666666666666663E-002  0.25000000000000000        7.1245482111275570E-005   6.5090273866421757E-005  -8.3314553446353309E-004   7.1575315591777802        4.8277395141467505E-009
   1.6666666666666663E-002  0.28333333333333333        5.0128685768911741E-005   6.4307145544541432E-005  -9.6254280037703964E-004   7.4264449954209670        4.3821078866274066E-009
   1.6666666666666663E-002  0.31666666666666665        3.2495731528841835E-005   6.2730410068312075E-005  -1.0895802182750718E-003   7.6972779994644824        3.8807813854818685E-009
   1.6666666666666663E-002  0.35000000000000003        1.8528171809815225E-005   6.0153176979948767E-005  -1.2124636852385369E-003   7.9667635648664517        3.3243063566647246E-009
   1.6666666666666663E-002  0.38333333333333336        8.3687703151297614E-006   5.6467398931111046E-005  -1.3290841605057889E-003   8.2330351642527475        2.7143221190649436E-009
   1.6666666666666663E-002  0.41666666666666669        2.1072800473385860E-006   5.1639966682365874E-005  -1.4371914466522234E-003   8.4949952686795651        2.0537004302018103E-009
   1.6666666666666663E-002  0.45000000000000001       -2.2998152004204813E-007   4.5683482204415310E-005  -1.5345148388663738E-003   8.7518833914581169        1.3466574075478299E-009
   1.6666666666666663E-002  0.48333333333333334        1.3119936437148511E-006   3.8629746405148889E-005  -1.6188280350510659E-003   9.0030206983274770        5.9883493086151929E-010
   1.6666666666666663E-002  0.51666666666666661        6.6105440356159025E-006   3.0509340155557766E-005  -1.6879671146754244E-003   9.2476638017554507       -1.8265405442481619E-010
   1.6666666666666663E-002  0.54999999999999993        1.5459325191774590E-005   2.1339327135645040E-005  -1.7398158014979722E-003   9.4849086840885271       -9.8922664460918130E-010
   1.6666666666666663E-002  0.58333333333333326        2.7561504922359677E-005   1.1119572711081667E-005  -1.7722747480133061E-003   9.7136102098644184       -1.8108897838296084E-009
   1.6666666666666663E-002  0.61666666666666659        4.2521328012581061E-005  -1.6394042295287018E-007  -1.7832304544224387E-003   9.9323031954424792       -2.6363704490826710E-009
   1.6666666666666663E-002  0.64999999999999991        5.9833611184911825E-005  -1.2532356856510680E-005  -1.7705342586378597E-003   10.139121588736845       -3.4533226202660555E-009
   1.6666666666666663E-002  0.68333333333333324        7.8870934744133058E-005  -2.6008080163386124E-005  -1.7319939499835096E-003   10.331714129198719       -4.2486101808989624E-009
   1.6666666666666663E-002  0.71666666666666656        9.8868002153805254E-005  -4.0612462956948775E-005  -1.6653735611509663E-003   10.507151321265590       -5.0086573087811115E-009
   1.6666666666666663E-002  0.75000000000000000        1.1890163866262308E-004  -5.6363590607583343E-005  -1.5683976863949140E-003   10.661814455512539       -5.7198514848144644E-009
   1.6666666666666663E-002  0.78333333333333333        1.3786327092518810E-004  -7.3256218460028894E-005  -1.4387780788078092E-003   10.791261667767998       -6.3689789518706075E-009
   1.6666666666666663E-002  0.81666666666666665        1.5441916842600352E-004  -9.1175175353561445E-005  -1.2743469068716947E-003   10.890098992597114       -6.9436696063102099E-009
   1.6666666666666663E-002  0.84999999999999998        1.6695426541529949E-004  -1.0962817417346291E-004  -1.0735437969529504E-003   10.951994218533860       -7.4328271905399479E-009
   1.6666666666666663E-002  0.88333333333333330        1.7350310212619569E-004  -1.2703626431407315E-004  -8.3687961279621526E-004   10.970271443115326       -7.8270208673722474E-009
   1.6666666666666663E-002  0.91666666666666663        1.7169941694756728E-004  -1.3896008686567834E-004  -5.7088352738043132E-004   10.940276430271927       -8.1188171862506264E-009
   1.6666666666666663E-002  0.94999999999999996        1.5886131810204942E-004  -1.3374564540847829E-004  -2.9817806880380398E-004   10.866461883194907       -8.3030345758572377E-009
   1.6666666666666663E-002  0.98333333333333317        1.3258385907050581E-004  -8.2216420504745567E-005  -8.2216280889617623E-005   10.780639125507342       -8.3769076762024719E-009
   5.0000000000000003E-002   1.6666666666666663E-002   3.0675157274301785E-004   8.3679948355030705E-005  -4.8022439655432742E-005   6.9308138513879562        6.4144174381774999E-009
   5.0000000000000003E-002   5.0000000000000003E-002   2.6537043049633917E-004   1.9594203546547884E-004  -1.9993652232861119E-004   7.0036631992045297        4.1905253399254772E-009
   5.0000000000000003E-002   8.3333333333333329E-002   2.2681659015113940E-004   2.5248554709716325E-004  -4.3715618931296349E-004   7.1745178464754398        4.0936817078535137E-009
   5.0000000000000003E-002  0.11666666666666665        1.9100258387881328E-004   2.7494796202787842E-004  -7.1678470931913515E-004   7.4505031345862776        3.9658066899872502E-009
   5.0000000000000003E-002  0.15000000000000002        1.5786817428894390E-004   2.8133439856263564E-004  -1.0135963587785549E-003   7.8219178604914701        3.8056122732277320E-009
   5.0000000000000003E-002  0.18333333333333335        1.2744010793457066E-004   2.8153976941074370E-004  -1.3146870191793893E-003   8.2681356743897254        3.6117761507276080E-009
   5.0000000000000003E-002  0.21666666666666667        9.9834674791210708E-005   2.7926898446719212E-004  -1.6137746098376271E-003   8.7650042924023701        3.3830802395606874E-009
   5.0000000000000003E-002  0.25000000000000000        7.5228150377299933E-005   2.7491226894548024E-004  -1.9070143627516376E-003   9.2908099364138739        3.1185530616206769E-009
   5.0000000000000003E-002  0.28333333333333333        5.3823826720368971E-005   2.6765053505656592E-004  -2.1907822289957187E-003   9.8292778793098865        2.8176092587567370E-009
   5.0000000000000003E-002  0.31666666666666665        3.5825838964902951E-005   2.5657007565436110E-004  -2.4609276401844522E-003   10.369834005255306        2.4801799208135078E-009
   5.0000000000000003E-002  0.35000000000000003        2.1419114005418834E-005   2.4107878949867367E-004  -2.7128092547908230E-003   10.906320841664014        2.1068286169476091E-009
   5.0000000000000003E-002  0.38333333333333336        1.0752655628348322E-005   2.2096028012748704E-004  -2.9416071091668923E-003   11.435352376191057        1.6988497093459176E-009
   5.0000000000000003E-002  0.41666666666666669        3.9249957226303874E-006   1.9628576989515358E-004  -3.1426383786759497E-003   11.954982016561146        1.2583480420852444E-009
   5.0000000000000003E-002  0.45000000000000001        9.7205565110073417E-007   1.6729158879425131E-004  -3.3115688054809844E-003   12.463853632886996        7.8830043707955877E-010
   5.0000000000000003E-002  0.48333333333333334        1.8577388196776426E-006   1.3426802172832660E-004  -3.4445019407694320E-003   12.960730969648498        2.9259969403991337E-010
   5.0000000000000003E-002  0.51666666666666661        6.4668495475797143E-006   9.7479503850145152E-005  -3.5379712920818431E-003   13.444237076953129       -2.2392088010192435E-010
   5.0000000000000003E-002  0.54999999999999993        1.4599210423694626E-005   5.7124225727418477E-005  -3.5888777034005126E-003   13.912677190426766       -7.5548979691555246E-010
   5.0000000000000003E-002  0.58333333333333326        2.5963574857070314E-005   1.3331997512673375E-005  -3.5944161611292684E-003   14.363880164321468       -1.2954372415269547E-009
   5.0000000000000003E-002  0.61666666666666659        4.0170148701688424E-005  -3.3808999656361106E-005  -3.5520279466046516E-003   14.795036783869627       -1.8362824706977254E-009
   5.0000000000000003E-002  0.64999999999999991        5.6721044338203886E-005  -8.4211315798250720E-005  -3.4594002958115728E-003   15.202531890910075       -2.3698738726637969E-009
   5.0000000000000003E-002  0.68333333333333324        7.4998492922387101E-005  -1.3774780735613108E-004  -3.3145221343212194E-003   15.581767348081577       -2.8875802148692342E-009
   5.0000000000000003E-002  0.71666666666666656        9.4250848319192738E-005  -1.9421710050166786E-004  -3.1157984171725278E-003   15.926962330614238       -3.3805260639396817E-009
   5.0000000000000003E-002  0.75000000000000000        1.1357617311582850E-004  -2.5329580199059834E-004  -2.8622377421490949E-003   16.230904909410587       -3.8398600687994389E-009
   5.0000000000000003E-002  0.78333333333333333        1.3190268283691222E-004  -3.1440648409914384E-004  -2.5537752091429411E-003   16.484629814563160       -4.2570417694426377E-009
   5.0000000000000003E-002  0.81666666666666665        1.4796548056469127E-004  -3.7632773774354093E-004  -2.1919039229469917E-003   16.677049198811851       -4.6241315082573564E-009
   5.0000000000000003E-002  0.84999999999999998        1.6028242221574610E-004  -4.3616857014064012E-004  -1.7810144734201729E-003   16.794762317049962       -4.9340673040354499E-009
   5.0000000000000003E-002  0.88333333333333330        1.6714445454846314E-004  -4.8690617269196734E-004  -1.3312687761456554E-003   16.822863722983325       -5.1809137639746705E-009
   5.0000000000000003E-002  0.91666666666666663        1.6666820996093053E-004  -5.1175047917896869E-004  -8.6460500231728033E-004   16.749199967664289       -5.3600697162009547E-009
   5.0000000000000003E-002  0.94999999999999996        1.5702079656194299E-004  -4.7144256027620599E-004  -4.2682360788530779E-004   16.578840633685086       -5.4684236167057421E-009
   5.0000000000000003E-002  0.98333333333333317        1.3696359028493021E-004  -2.7586914753354163E-004  -1.1143621478322600E-004   16.376355943990152       -5.5044494691458556E-009
   8.3333333333333329E-002   1.6666666666666663E-002   3.0506936334486932E-004   1.9621731366825342E-004  -6.4514713506327398E-005   7.8220355906132175        6.3146703157233863E-009
   8.3333333333333329E-002   5.0000000000000003E-002   2.6459897893917273E-004   4.3686230280874845E-004  -2.6605791280340729E-004   7.9233193028111888        4.1215609467015746E-009
   8.3333333333333329E-002   8.3333333333333329E-002   2.2699421725026449E-004   5.6131157917945244E-004  -5.7858427139030849E-004   8.1712449979619475        4.0254903247577412E-009
   8.3333333333333329E-002  0.11666666666666665        1.9182240334346496E-004   6.1440484112607844E-004  -9.4723839617029697E-004   8.5786962690278337        3.8986810117075388E-009
   8.3333333333333329E-002  0.15000000000000002        1.5897465740314116E-004   6.3053687309540534E-004  -1.3390858435087722E-003   9.1306728957032597        3.7398845149222426E-009
   8.3333333333333329E-002  0.18333333333333335        1.2854569636037337E-004   6.2944475451343627E-004  -1.7351023976583850E-003   9.7945433850546539        3.5478279637041199E-009
   8.3333333333333329E-002  0.21666666666666667        1.0073520697777294E-004   6.1939047809736881E-004  -2.1240410546657256E-003   10.532325289972958        3.3213530831882609E-009
   8.3333333333333329E-002  0.25000000000000000        7.5784687026954348E-005   6.0210544189340991E-004  -2.4981157536207409E-003   11.310386600990768        3.0595584798315256E-009
   8.3333333333333329E-002  0.28333333333333333        5.3943321700280050E-005   5.7673800949886961E-004  -2.8506283388059191E-003   12.104083532107488        2.7619376369303339E-009
   8.3333333333333329E-002  0.31666666666666665        3.5449188254022416E-005   5.4211142134268444E-004  -3.1751115729439445E-003   12.897864805604675        2.4285052597355916E-009
   8.3333333333333329E-002  0.35000000000000003        2.0514625838703259E-005   4.9763328649446198E-004  -3.4653256497646965E-003   13.682984354880650        2.0599055187281445E-009
   8.3333333333333329E-002  0.38333333333333336        9.3110912752658518E-006   4.4343518747591028E-004  -3.7155570743481318E-003   14.454818221040306        1.6574985862993774E-009
   8.3333333333333329E-002  0.41666666666666669        1.9540384928531711E-006   3.8018298619823138E-004  -3.9208978311885499E-003   15.210817401555271        1.2234251962200959E-009
   8.3333333333333329E-002  0.45000000000000001       -1.5098253339744922E-006   3.0880440160423520E-004  -4.0773773663177852E-003   15.949271329075875        7.6065379342460382E-010
   8.3333333333333329E-002  0.48333333333333334       -1.1114096128943933E-006   2.3025110308618851E-004  -4.1819400899543533E-003   16.668648748773926        2.7301592323697443E-010
   8.3333333333333329E-002  0.51666666666666661        3.0354753303627745E-006   1.4534515442545093E-004  -4.2323194687929905E-003   17.367230063027321       -2.3476760412002168E-010
   8.3333333333333329E-002  0.54999999999999993        1.0730737470211371E-005   5.4723131977140680E-005  -4.2268776471536089E-003   18.042840506317848       -7.5707732596040633E-010
   8.3333333333333329E-002  0.58333333333333326        2.1684379290356844E-005  -4.1132541079531479E-005  -4.1644736253394453E-003   18.692597264491660       -1.2874201240666017E-009
   8.3333333333333329E-002  0.61666666666666659        3.5510908337021001E-005  -1.4180101715815190E-004  -4.0444053877307894E-003   19.312646580487399       -1.8185035395926197E-009
   8.3333333333333329E-002  0.64999999999999991        5.1721051460925665E-005  -2.4680147131911606E-004  -3.8664510049516675E-003   19.897889496745048       -2.3423673911962539E-009
   8.3333333333333329E-002  0.68333333333333324        6.9711206389022636E-005  -3.5546951528861676E-004  -3.6310174771618598E-003   20.441691368446364       -2.8505699155301212E-009
   8.3333333333333329E-002  0.71666666666666656        8.8752045436650190E-005  -4.6683710748376939E-004  -3.3393996869475785E-003   20.935553691910439       -3.3344207030910900E-009
   8.3333333333333329E-002  0.75000000000000000        1.0797825845061135E-004  -5.7947464139354544E-004  -2.9941617545868487E-003   21.368709644949700       -3.7852462986959212E-009
   8.3333333333333329E-002  0.78333333333333333        1.2638165335480438E-004  -6.9116305357460250E-004  -2.5996891466616408E-003   21.727609766082242       -4.1946745035770228E-009
   8.3333333333333329E-002  0.81666666666666665        1.4281048297811713E-004  -7.9809357352127815E-004  -2.1630383214505337E-003   21.995349446818015       -4.5549205830719419E-009
   8.3333333333333329E-002  0.84999999999999998        1.5598126040805647E-004  -8.9297468186861685E-004  -1.6953561396746307E-003   22.151407954424400       -4.8590601282177959E-009
   8.3333333333333329E-002  0.88333333333333330        1.6452088273513106E-004  -9.6082023085030635E-004  -1.2143820016514136E-003   22.173012217780762       -5.1012736743127896E-009
   8.3333333333333329E-002  0.91666666666666663        1.6708645996096628E-004  -9.6999698316313780E-004  -7.4888556199240674E-004   22.041996404161722       -5.2770504146981700E-009
   8.3333333333333329E-002  0.94999999999999996        1.6266684046101486E-004  -8.5364382801489218E-004  -3.4621954284959214E-004   21.767587896615481       -5.3833403464154106E-009
   8.3333333333333329E-002  0.98333333333333317        1.5121956171210157E-004  -4.7129036151464143E-004  -8.3984817146247220E-005   21.451205357675182       -5.4186481274198783E-009
  0.11666666666666665        1.6666666666666663E-002   2.9971270798007755E-004   3.3001441151896463E-004  -6.9282175966646790E-005   8.6483257110568292        6.1879939080786150E-009
  0.11666666666666665        5.0000000000000003E-002   2.6044066866954646E-004   7.2315428028046371E-004  -2.8782770767019929E-004   8.7714436624739669        4.0350824799528784E-009
  0.11666666666666665        8.3333333333333329E-002   2.2379015549485473E-004   9.2912362377127759E-004  -6.2940510244029234E-004   9.0842594252632303        3.9402590235743107E-009
  0.11666666666666665       0.11666666666666665        1.8921038624965570E-004   1.0196196414707873E-003  -1.0337775612710661E-003   9.6062589636534543        3.8151159575255944E-009
  0.11666666666666665       0.15000000000000002        1.5659668337327114E-004   1.0465047311291227E-003  -1.4631125204424122E-003   10.317949799696342        3.6584348189760973E-009
  0.11666666666666665       0.18333333333333335        1.2611290804688050E-004   1.0401142905479598E-003  -1.8937331201088663E-003   11.175375244937738        3.4689831181211606E-009
  0.11666666666666665       0.21666666666666667        9.8042052773284380E-005   1.0141943444124577E-003  -2.3102676390541446E-003   12.127205585904020        3.2456554371201873E-009
  0.11666666666666665       0.25000000000000000        7.2701055065671580E-005   9.7281369089492081E-004  -2.7017048451793181E-003   13.128178087611079        2.9876177018439698E-009
  0.11666666666666665       0.28333333333333333        5.0402198257951197E-005   9.1605463839713628E-004  -3.0592169461679287E-003   14.145414325771046        2.6944454827038111E-009
  0.11666666666666665       0.31666666666666665        3.1434890706628853E-005   8.4338934727949937E-004  -3.3753280960127207E-003   15.158426981832761        2.3662474809421630E-009
  0.11666666666666665       0.35000000000000003        1.6050841487601093E-005   7.5507047891418115E-004  -3.6438289899081147E-003   16.155903418637049        2.0037650089524406E-009
  0.11666666666666665       0.38333333333333336        4.4476528468938875E-006   6.5232579235667597E-004  -3.8599252404649754E-003   17.132059387738593        1.6084422431103529E-009
  0.11666666666666665       0.41666666666666669       -3.2468425212121817E-006   5.3702813542457948E-004  -4.0203201432011159E-003   18.083926534421433        1.1824672898827493E-009
  0.11666666666666665       0.45000000000000001       -6.9857628696854055E-006   4.1124815017910279E-004  -4.1231294409507530E-003   19.009739317264508        7.2879424500502110E-010
  0.11666666666666665       0.48333333333333334       -6.8082756546696842E-006   2.7689137045451551E-004  -4.1676506996969308E-003   19.908067043770373        2.5116304381341686E-010
  0.11666666666666665       0.51666666666666661       -2.8398353759045808E-006   1.3549905248864150E-004  -4.1540654855641186E-003   20.777305920129852       -2.4586981127276697E-010
  0.11666666666666665       0.54999999999999993        4.7094383942466106E-006  -1.1777273037100798E-005  -4.0831608334960020E-003   21.615292282282837       -7.5689849310042745E-010
  0.11666666666666665       0.58333333333333326        1.5545006547305898E-005  -1.6405734522782311E-004  -3.9561397140986344E-003   22.418935751650885       -1.2756641446301509E-009
  0.11666666666666665       0.61666666666666659        2.9284590810279802E-005  -3.2051948237975264E-004  -3.7745647852823472E-003   23.183846925875436       -1.7951091585421963E-009
  0.11666666666666665       0.64999999999999991        4.5450891488353672E-005  -4.8014656368093611E-004  -3.5404557482026809E-003   23.903958397687905       -2.3074978178216909E-009
  0.11666666666666665       0.68333333333333324        6.3461934935149842E-005  -6.4147095104876610E-004  -3.2565429196210966E-003   24.571132947917651       -2.8045995335151952E-009
  0.11666666666666665       0.71666666666666656        8.2622379637284997E-005  -8.0232700948603092E-004  -2.9266695765314929E-003   25.174736688320195       -3.2779214082651054E-009
  0.11666666666666665       0.75000000000000000        1.0212025337028903E-004  -9.5955898228537143E-004  -2.5563335012741832E-003   25.701144240899520       -3.7189744773319378E-009
  0.11666666666666665       0.78333333333333333        1.2103399294992461E-004  -1.1085195612244867E-003  -2.1533655242985555E-003   26.133167704602009       -4.1195571953700494E-009
  0.11666666666666665       0.81666666666666665        1.3835468445076802E-004  -1.2419894188261684E-003  -1.7287642855747568E-003   26.449536964917197       -4.4720398339331835E-009
  0.11666666666666665       0.84999999999999998        1.5302983902801522E-004  -1.3477779898805409E-003  -1.2977476249614274E-003   26.624999596125765       -4.7696343610792447E-009
  0.11666666666666665       0.88333333333333330        1.6404279948313840E-004  -1.4036051672507873E-003  -8.8113384751563437E-004   26.632825974850640       -5.0066355072181379E-009
  0.11666666666666665       0.91666666666666663        1.7056595093391681E-004  -1.3666932771955048E-003  -5.0714939946813655E-004   26.454577932482266       -5.1786210025078772E-009
  0.11666666666666665       0.94999999999999996        1.7227841303919006E-004  -1.1534481213440406E-003  -2.1331518327631291E-004   26.109155309852888       -5.2826008740958219E-009
  0.11666666666666665       0.98333333333333317        1.7000233734694637E-004  -6.0115584572515378E-004  -4.5880488134974662E-005   25.728010429378603       -5.3171093010277726E-009
  0.15000000000000002        1.6666666666666663E-002   2.9073117675162887E-004   4.6456908143655007E-004  -6.5272290234732008E-005   9.4088104792175713        6.0349784865645906E-009
  0.15000000000000002        5.0000000000000003E-002   2.5295497169197537E-004   1.0171174044842184E-003  -2.7524421615947531E-004   9.5467419538198381        3.9315277769458312E-009
  0.15000000000000002        8.3333333333333329E-002   2.1731523172457837E-004   1.3103636930722590E-003  -6.0886975247235087E-004   9.9083405853745603        3.8384367594124225E-009
  0.15000000000000002       0.11666666666666665        1.8331106425668498E-004   1.4409003106990882E-003  -1.0070177770145818E-003   10.519935862867019        3.7155649078302044E-009
  0.15000000000000002       0.15000000000000002        1.5091540300225605E-004   1.4772423010150763E-003  -1.4297008111103689E-003   11.359128614214672        3.5617115957953249E-009
  0.15000000000000002       0.18333333333333335        1.2038786778720554E-004   1.4603488766132197E-003  -1.8500521329817697E-003   12.372714638808558        3.3756719745869912E-009
  0.15000000000000002       0.21666666666666667        9.2105976553618108E-005   1.4101779680857054E-003  -2.2497356029967850E-003   13.497818459366385        3.1563823308516925E-009
  0.15000000000000002       0.25000000000000000        6.6470199677538819E-005   1.3342505737063024E-003  -2.6157186984774958E-003   14.678647889110362        2.9030692294540472E-009
  0.15000000000000002       0.28333333333333333        4.3862139937955579E-005   1.2347911111553627E-003  -2.9383797663830860E-003   15.874496832499585        2.6153920175409073E-009
  0.15000000000000002       0.31666666666666665        2.4624223077760037E-005   1.1130376289782407E-003  -3.2106532048343977E-003   17.059935248809783        2.2935668468615500E-009
  0.15000000000000002       0.35000000000000003        9.0424419315602917E-006   9.7101459564405109E-004  -3.4277445660003134E-003   18.220988422797966        1.9384587685022936E-009
  0.15000000000000002       0.38333333333333336       -2.6713114156881238E-006   8.1173284071604161E-004  -3.5869993621610633E-003   19.350744889376351        1.5516314960314914E-009
  0.15000000000000002       0.41666666666666669       -1.0393238836496728E-005   6.3870425432014082E-004  -3.6876875353816251E-003   20.446054864575011        1.1353524370649737E-009
  0.15000000000000002       0.45000000000000001       -1.4093861936522409E-005   4.5533610139942182E-004  -3.7306422454281406E-003   21.505517570464448        6.9256966860661157E-010
  0.15000000000000002       0.48333333333333334       -1.3836006867234276E-005   2.6448575944776126E-004  -3.7178032952384287E-003   22.528341894832092        2.2689902842883136E-010
  0.15000000000000002       0.51666666666666661       -9.7676088919277125E-006   6.8274513149160172E-005  -3.6517583594441044E-003   23.513639497128882       -2.5733822364704118E-010
  0.15000000000000002       0.54999999999999993       -2.1140151433939398E-006  -1.3184403801198833E-004  -3.5353717407834995E-003   24.459883020982705       -7.5503234827495325E-010
  0.15000000000000002       0.58333333333333326        8.8260252730206434E-006  -3.3481792068166622E-004  -3.3715655872158944E-003   25.364416692584143       -1.2602304651221363E-009
  0.15000000000000002       0.61666666666666659        2.2678461414245027E-005  -5.3960963699758177E-004  -3.1632898875799077E-003   26.222987847929527       -1.7661601426147144E-009
  0.15000000000000002       0.64999999999999991        3.8986554825065579E-005  -7.4476176207625663E-004  -2.9136937072148953E-003   27.029293005470873       -2.2653411368978027E-009
  0.15000000000000002       0.68333333333333324        5.7201097104888715E-005  -9.4797001192423744E-004  -2.6264924453125015E-003   27.774529519578838       -2.7497703454504308E-009
  0.15000000000000002       0.71666666666666656        7.6673512193962647E-005  -1.1456826190590962E-003  -2.3065113186777524E-003   28.446935298718824       -3.2111597235429112E-009
  0.15000000000000002       0.75000000000000000        9.6658431272000786E-005  -1.3326820718033996E-003  -1.9603689256650126E-003   29.031303955498831       -3.6412070043151390E-009
  0.15000000000000002       0.78333333333333333        1.1633238378345373E-004  -1.5014913127523949E-003  -1.5972423201216974E-003   29.508515100280182       -4.0318809367556607E-009
  0.15000000000000002       0.81666666666666665        1.3483402053976435E-004  -1.6412374954695506E-003  -1.2296240139939275E-003   29.855302214040684       -4.3757053327930784E-009
  0.15000000000000002       0.84999999999999998        1.5133001360668043E-004  -1.7352332880275797E-003  -8.7393760454027112E-004   30.044996104686003       -4.6660266084935786E-009
  0.15000000000000002       0.88333333333333330        1.6511384402499951E-004  -1.7559044968876343E-003  -5.5079707652798350E-004   30.051287311968576       -4.8972518349593708E-009
  0.15000000000000002       0.91666666666666663        1.7576168539735259E-004  -1.6547164067260943E-003  -2.8445940120060999E-004   29.860060211408655       -5.0650455687278884E-009
  0.15000000000000002       0.94999999999999996        1.8341241071827892E-004  -1.3435026672744136E-003  -1.0021628681053632E-004   29.500535503371953       -5.1664764541201058E-009
  0.15000000000000002       0.98333333333333317        1.8929386244872143E-004  -6.6289457016597436E-004  -1.5858061018907906E-005   29.117483526502905       -5.2001069828205154E-009
  0.18333333333333335        1.6666666666666663E-002   2.7869195223365479E-004   5.8517907064739268E-004  -5.5337500785369996E-005   10.106217503105247        5.8564659515154827E-009
  0.18333333333333335        5.0000000000000003E-002   2.4263490383931042E-004   1.2897403713526645E-003  -2.3859820369851313E-004   10.251920668123189        3.8115119246548423E-009
  0.18333333333333335        8.3333333333333329E-002   2.0809109966816837E-004   1.6699536773311392E-003  -5.3718536347747709E-004   10.644174712894763        3.7206527563754532E-009
  0.18333333333333335       0.11666666666666665        1.7471508712628813E-004   1.8408762186265266E-003  -8.9860298319956731E-004   11.315889884584946        3.6006654428877294E-009
  0.18333333333333335       0.15000000000000002        1.4261154429544572E-004   1.8849822621770456E-003  -1.2836355793883010E-003   12.243823038802779        3.4503512807287917E-009
  0.18333333333333335       0.18333333333333335        1.1215971081692589E-004   1.8532786896281112E-003  -1.6639538040895980E-003   13.368562718592216        3.2685149118499845E-009
  0.18333333333333335       0.21666666666666667        8.3841357813473931E-005   1.7725589872249112E-003  -2.0195809519839222E-003   14.618466786923108        3.0541162567704339E-009
  0.18333333333333335       0.25000000000000000        5.8142226692578432E-005   1.6549511790048509E-003  -2.3366792822743622E-003   15.929020721425623        2.8064283830869785E-009
  0.18333333333333335       0.28333333333333333        3.5507841778532442E-005   1.5060426605488756E-003  -2.6059701882261664E-003   17.252490340367807        2.5251904022666194E-009
  0.18333333333333335       0.31666666666666665        1.6321137087038280E-005   1.3298621599344550E-003  -2.8217726693764329E-003   18.558688030820630        2.2107396382281541E-009
  0.18333333333333335       0.35000000000000003        8.8420795179569722E-007   1.1309247011844251E-003  -2.9814158062592896E-003   19.830999117745399        1.8641037281483253E-009
  0.18333333333333335       0.38333333333333336       -1.0597544449333714E-005   9.1441785085137161E-004  -3.0847560117538584E-003   21.061525897138548        1.4870291165959559E-009
  0.18333333333333335       0.41666666666666669       -1.8023977756084166E-005   6.8559201956169672E-004  -3.1336405263110816E-003   22.247278575647147        1.0819329904643987E-009