 TITLE = "Cavity_simu"
 Variables="X","Y","P","U","V","T","div"
 Zone I=          30 , J=          30 , F = POINT
   1.6666666666666663E-002   1.6666666666666663E-002   3.0671623066716718E-004   1.7886668099957479E-005  -1.7886558767892180E-005   5.9858361286886277        6.5599239180893359E-009
   1.6666666666666663E-002   5.0000000000000003E-002   2.6431175175738885E-004   4.6107134988073356E-005  -8.1880171478769547E-005   6.0238733043726977        4.8627052905148016E-009
   1.6666666666666663E-002   8.3333333333333329E-002   2.2468910688559594E-004   5.9626518860504388E-005  -1.8761366453448061E-004   6.1095189035146094        4.7848667098816799E-009
   1.6666666666666663E-002  0.11666666666666665        1.8823201910546584E-004   6.4313229851741189E-005  -3.1155325555960972E-004   6.2456161320978190        4.6763602807795013E-009
   1.6666666666666663E-002  0.15000000000000002        1.5482946836046106E-004   6.5335342806830662E-005  -4.4120167473280002E-004   6.4276942799614094        4.5327626096991480E-009
   1.6666666666666663E-002  0.18333333333333335        1.2436951189685443E-004   6.5336239065666527E-005  -5.7187310857190416E-004   6.6463084428749513        4.3492409717085789E-009
   1.6666666666666663E-002  0.21666666666666667        9.6868218373636917E-005   6.5169623600874849E-005  -7.0237883006967752E-004   6.8902511020709181        4.1208851088436749E-009
   1.6666666666666663E-002  0.25000000000000000        7.2451842709855959E-005   6.4816403082542683E-005  -8.3236472402085590E-004   7.1492350566425564        3.8430492438519537E-009
   1.6666666666666663E-002  0.28333333333333333        5.1304456870255910E-005   6.3978633261375253E-005  -9.6115963778582519E-004   7.4153400765233606        3.5116876750257431E-009
   1.6666666666666663E-002  0.31666666666666665        3.3622667360748970E-005   6.2360897050335509E-005  -1.0874990575082590E-003   7.6832572319252783        3.1236689406952123E-009
   1.6666666666666663E-002  0.35000000000000003        1.9584793898874196E-005   5.9761084334605006E-005  -1.2096209422144464E-003   7.9497966871730688        2.6770562381456253E-009
   1.6666666666666663E-002  0.38333333333333336        9.3307337448543249E-006   5.6074557348871698E-005  -1.3254565030912265E-003   8.2131650688168651        2.1713455686245275E-009
   1.6666666666666663E-002  0.41666666666666669        2.9481066906013431E-006   5.1269617883351980E-005  -1.4328006153400839E-003   8.4723331191359748        1.6076564051357989E-009
   1.6666666666666663E-002  0.45000000000000001        4.6216515920675304E-007   4.5358041264367386E-005  -1.5294282312123091E-003   8.7266027200714653        9.8887324891105965E-010
   1.6666666666666663E-002  0.48333333333333334        1.8281580080057836E-006   3.8368699960674690E-005  -1.6131549506271997E-003   8.9753501921966841        3.1973583849986831E-010
   1.6666666666666663E-002  0.51666666666666661        6.9250711024651257E-006   3.0327553249232203E-005  -1.6818512050602663E-003   9.2178788072940385       -3.9312541828644132E-010
   1.6666666666666663E-002  0.54999999999999993        1.5549566384583310E-005   2.1245886457218859E-005  -1.7334246703390919E-003   9.4533217576826445       -1.1412170557514867E-009
   1.6666666666666663E-002  0.58333333333333326        2.7408992343466476E-005   1.1117170032914486E-005  -1.7657877777542273E-003   9.6805611123456359       -1.9142830656130455E-009
   1.6666666666666663E-002  0.61666666666666659        4.2112649241135794E-005  -7.9138592931982286E-008  -1.7768258861070503E-003   9.8981485832030653       -2.7004873719912054E-009
   1.6666666666666663E-002  0.64999999999999991        5.9160896265436551E-005  -1.2370385038262018E-005  -1.7643764655953281E-003   10.104224405301453       -3.4866809283523592E-009
   1.6666666666666663E-002  0.68333333333333324        7.7931896024268369E-005  -2.5784336817155942E-005  -1.7262218728304156E-003   10.296432480883087       -4.2587494026094519E-009
   1.6666666666666663E-002  0.71666666666666656        9.7665506169889498E-005  -4.0346176961401414E-005  -1.6600915133981630E-003   10.471826566094942       -5.0020288835418703E-009
   1.6666666666666663E-002  0.75000000000000000        1.1744285177386758E-004  -5.6075299808828209E-005  -1.5636702150246043E-003   10.626758486304110       -5.7017713731878639E-009
   1.6666666666666663E-002  0.78333333333333333        1.3615852584915357E-004  -7.2963966997184176E-005  -1.4346311489754075E-003   10.756744052383473       -6.3436375562220260E-009
   1.6666666666666663E-002  0.81666666666666665        1.5248086437002540E-004  -9.0889400704775665E-005  -1.2707780022372696E-003   10.856335767849826       -6.9141917686046939E-009
   1.6666666666666663E-002  0.84999999999999998        1.6479634168271875E-004  -1.0934608421394123E-004  -1.0705427559113234E-003   10.919141389357391       -7.4013744681689086E-009
   1.6666666666666663E-002  0.88333333333333330        1.7114186987035951E-004  -1.2673848450184274E-004  -8.3445844046724888E-004   10.938426294068966       -7.7949280996927883E-009
   1.6666666666666663E-002  0.91666666666666663        1.6915664024656120E-004  -1.3861680430721064E-004  -5.6910341635292832E-004   10.909484620502077       -8.0867558725772337E-009
   1.6666666666666663E-002  0.94999999999999996        1.5616998469094269E-004  -1.3335015139808861E-004  -2.9713673328016221E-004   10.836706871991604       -8.2711961134351863E-009
   1.6666666666666663E-002  0.98333333333333317        1.2979502105385247E-004  -8.1893498954337574E-005  -8.1893359867671073E-005   10.751724907989132       -8.3451999902464657E-009
   5.0000000000000003E-002   1.6666666666666663E-002   3.0792568780392825E-004   8.3896446346199026E-005  -4.8123028914556750E-005   6.9364935783570800        4.8739036391867718E-009
   5.0000000000000003E-002   5.0000000000000003E-002   2.6655402231632984E-004   1.9624032504873611E-004  -2.0027205954096033E-004   7.0084192627097961        3.2016445536409144E-009
   5.0000000000000003E-002   8.3333333333333329E-002   2.2801246067512406E-004   2.5264782210960174E-004  -4.3769279321061757E-004   7.1775219460637505        3.1458469544609624E-009
   5.0000000000000003E-002  0.11666666666666665        1.9220957215008313E-004   2.7487188173316553E-004  -7.1733289604670504E-004   7.4509433575276782        3.0690843685898805E-009
   5.0000000000000003E-002  0.15000000000000002        1.5908214094106663E-004   2.8098023486736098E-004  -1.0138877667046492E-003   7.8189891711977539        2.9684419540487728E-009
   5.0000000000000003E-002  0.18333333333333335        1.2865454715806421E-004   2.8089643998897276E-004  -1.3144211809955468E-003   8.2610815812515863        2.8407845572425705E-009
   5.0000000000000003E-002  0.21666666666666667        1.0104089092093273E-004   2.7834328652362602E-004  -1.6126490901123773E-003   8.7531730325145478        2.6829765683439311E-009
   5.0000000000000003E-002  0.25000000000000000        7.6415118605244569E-005   2.7373018549747846E-004  -1.9047504225152682E-003   9.2736958926780275        2.4921061447108483E-009
   5.0000000000000003E-002  0.28333333333333333        5.4977892763052808E-005   2.6626025643734243E-004  -2.1871507124654500E-003   9.8065389060356178        2.2657020357086388E-009
   5.0000000000000003E-002  0.31666666666666665        3.6930414733434736E-005   2.5504167915897994E-004  -2.4557735163111038E-003   10.341290776162330        2.0019328174358808E-009
   5.0000000000000003E-002  0.35000000000000003        2.2454530331629061E-005   2.3949961470433518E-004  -2.7060707857093158E-003   10.871948143392430        1.6997804891047408E-009
   5.0000000000000003E-002  0.38333333333333336        1.1696315969869795E-005   2.1942699694059412E-004  -2.9333260630045720E-003   11.395268396137672        1.3591827064882156E-009
   5.0000000000000003E-002  0.41666666666666669        4.7519171140412812E-006   1.9489483290955888E-004  -3.1329595033848601E-003   11.909436881508137        9.8114234705487524E-010
   5.0000000000000003E-002  0.45000000000000001        1.6557970602268825E-006   1.6612985115790704E-004  -3.3007288433410920E-003   12.413216230939526        5.6780535481748551E-010
   5.0000000000000003E-002  0.48333333333333334        2.3716327454175635E-006   1.3340493881563011E-004  -3.4328101393593063E-003   12.905473246179358        1.2250896347723583E-010
   5.0000000000000003E-002  0.51666666666666661        6.7853954149934925E-006   9.6961739146647096E-005  -3.5257843146966348E-003   13.384915990107805       -3.5020086526851846E-010
   5.0000000000000003E-002  0.54999999999999993        1.4699467155815057E-005   5.6972821980759123E-005  -3.5765720163242884E-003   13.849915212927037       -8.4458810507403309E-010
   5.0000000000000003E-002  0.58333333333333326        2.5826399338348261E-005   1.3541823994007859E-005  -3.5823605859584590E-003   14.298345303107103       -1.3537921147608808E-009
   5.0000000000000003E-002  0.61666666666666659        3.9781153976822819E-005  -3.3267957459620219E-005  -3.5405584433418802E-003   14.727422713395415       -1.8699478007699888E-009
   5.0000000000000003E-002  0.64999999999999991        5.6071184501569973E-005  -8.3391107539804171E-005  -3.4487984965100443E-003   15.133538242518449       -2.3843642294948952E-009
   5.0000000000000003E-002  0.68333333333333324        7.4084215457252833E-005  -1.3671804043449554E-004  -3.3049988801152758E-003   15.512079729577586       -2.8877574827917973E-009
   5.0000000000000003E-002  0.71666666666666656        9.3073792604409942E-005  -1.9305834295101917E-004  -3.1074836285916478E-003   15.857231505021764       -3.3705288499455421E-009
   5.0000000000000003E-002  0.75000000000000000        1.1214244729664215E-004  -2.5209006880528461E-004  -2.8551782902691866E-003   16.161724983993576       -3.8230741385147926E-009
   5.0000000000000003E-002  0.78333333333333333        1.3022183612446895E-004  -3.1322410361040191E-004  -2.5479427857852338E-003   16.416516519797643       -4.2361083859437931E-009
   5.0000000000000003E-002  0.81666666666666665        1.4604941804297354E-004  -3.7521088139780214E-004  -2.1872146834659104E-003   16.610421467821666       -4.6009892701315280E-009
   5.0000000000000003E-002  0.84999999999999998        1.5814468191618550E-004  -4.3511450126897507E-004  -1.7773604291534272E-003   16.729932906755366       -4.9100223591808101E-009
   5.0000000000000003E-002  0.88333333333333330        1.6480042774530908E-004  -4.8585948457512086E-004  -1.3285557485201603E-003   16.760045156211998       -5.1567332938484700E-009
   5.0000000000000003E-002  0.91666666666666663        1.6413683897154697E-004  -5.1062663481465822E-004  -8.6278038162893402E-004   16.688522574541576       -5.3360934785390279E-009
   5.0000000000000003E-002  0.94999999999999996        1.5432750218396100E-004  -4.7023327332134388E-004  -4.2585456458323854E-004   16.520334737390684       -5.4446890121462310E-009
   5.0000000000000003E-002  0.98333333333333317        1.3414170439691358E-004  -2.7494793165720781E-004  -1.1116084240144434E-004   16.319694474692142       -5.4808252996849105E-009
   8.3333333333333329E-002   1.6666666666666663E-002   3.0623164285864643E-004   1.9662939942435072E-004  -6.4609762625583944E-005   7.8302902226946269        4.8183770207273213E-009
   8.3333333333333329E-002   5.0000000000000003E-002   2.6577518305911132E-004   4.3741046044582324E-004  -2.6636355286709611E-004   7.9301519346796798        3.1625141672098067E-009
   8.3333333333333329E-002   8.3333333333333329E-002   2.2818464013427760E-004   5.6156727335259947E-004  -5.7903219556241603E-004   8.1754045212714530        3.1065007857766780E-009
   8.3333333333333329E-002  0.11666666666666665        1.9302373273063128E-004   6.1414704869901401E-004  -9.4758650508436067E-004   8.5789650402592805        3.0296167467108726E-009
   8.3333333333333329E-002  0.15000000000000002        1.6018155588781800E-004   6.2966922404471021E-004  -1.3389955906336175E-003   9.1258545049554805        2.9290167322809646E-009
   8.3333333333333329E-002  0.18333333333333335        1.2975147669118766E-004   6.2794191947203369E-004  -1.7341964526715768E-003   9.7835328467742251        2.8016499554334162E-009
   8.3333333333333329E-002  0.21666666666666667        1.0193185302453019E-004   6.1728015453446812E-004  -2.1219507082171412E-003   10.514196814121503        2.6444793958801949E-009
   8.3333333333333329E-002  0.25000000000000000        7.6962480492791103E-005   5.9946828837981268E-004  -2.4945241754696537E-003   11.284451188748051        2.4547042766498439E-009
   8.3333333333333329E-002  0.28333333333333333        5.5090252420729402E-005   5.7370786408268931E-004  -2.8453094386723847E-003   12.069905201728554        2.2299736258946101E-009
   8.3333333333333329E-002  0.31666666666666665        3.6550324584904928E-005   5.3886741924466346E-004  -3.1679598414546322E-003   12.855249773128934        1.9685792995716156E-009
   8.3333333333333329E-002  0.35000000000000003        2.1551661453455814E-005   4.9438344076191279E-004  -3.4563720158678189E-003   13.631961072388725        1.6696191252468795E-009
   8.3333333333333329E-002  0.38333333333333336        1.0262279472457056E-005   4.4039486425040766E-004  -3.7049683309115047E-003   14.395617311088699        1.3331246393258334E-009
   8.3333333333333329E-002  0.41666666666666669        2.7946419544480875E-006   3.7755268631400863E-004  -3.9089605340187636E-003   15.143852032266043        9.6015327199355793E-010
   8.3333333333333329E-002  0.45000000000000001       -8.0657057872886352E-007   3.0675068889161764E-004  -4.0644698341681714E-003   15.875115631236920        5.5285023781159737E-010
   8.3333333333333329E-002  0.48333333333333334       -5.7293721870414258E-007   2.2889311639107937E-004  -4.1684975308315646E-003   16.588012934449736        1.1448858137572127E-010
   8.3333333333333329E-002  0.51666666666666661        3.3826191018783475E-006   1.4474747762014141E-004  -4.2187972792717271E-003   17.280932827590600       -3.5050949122317210E-010
   8.3333333333333329E-002  0.54999999999999993        1.0862443647248801E-005   5.4894428563196073E-005  -4.2137169623979159E-003   17.951780347225345       -8.3657623081538623E-010
   8.3333333333333329E-002  0.58333333333333326        2.1580340155065495E-005  -4.0236447808328693E-005  -4.1520718004105350E-003   18.597724326555163       -1.3370449092504899E-009
   8.3333333333333329E-002  0.61666666666666659        3.5155664537108113E-005  -1.4027097246701274E-004  -4.0330927629680310E-003   19.214935978276490       -1.8442539058416418E-009
   8.3333333333333329E-002  0.64999999999999991        5.1104638230754857E-005  -2.4476658878122218E-004  -3.8564743543557261E-003   19.798316230592423       -2.3497142721123909E-009
   8.3333333333333329E-002  0.68333333333333324        6.8829350979848173E-005  -3.5308664039724171E-004  -3.6225300639825481E-003   20.341206260486768       -2.8443370731628947E-009
   8.3333333333333329E-002  0.71666666666666656        8.7605895354016648E-005  -4.6427744915369387E-004  -3.3324578163629517E-003   20.835059462688498       -3.3187083827573849E-009
   8.3333333333333329E-002  0.75000000000000000        1.0657365089208526E-004  -5.7690636629432795E-004  -2.9887279889221673E-003   21.269036578522204       -3.7633969655892496E-009
   8.3333333333333329E-002  0.78333333333333333        1.2472798860589082E-004  -6.8872884524848795E-004  -2.5956427208099382E-003   21.629491643075589       -4.1692773539159234E-009
   8.3333333333333329E-002  0.81666666666666665        1.4091935811214607E-004  -7.9588383380235208E-004  -2.1601934213237263E-003   21.899402676356999       -4.5278510402840810E-009
   8.3333333333333329E-002  0.84999999999999998        1.5386516352440408E-004  -8.9100152946454945E-004  -1.6934880095429484E-003   22.058119419875712       -4.8315491486122797E-009
   8.3333333333333329E-002  0.88333333333333330        1.6219240298377780E-004  -9.5900707000191095E-004  -1.2132584094256276E-003   22.082740893579313       -5.0740018020523081E-009
   8.3333333333333329E-002  0.91666666666666663        1.6455844134157896E-004  -9.6821732984150660E-004  -7.4829584281470979E-004   21.954978961026566       -5.2502610974058950E-009
   8.3333333333333329E-002  0.94999999999999996        1.5995313308504776E-004  -8.5187911239739623E-004  -3.4598548222436020E-004   21.683875223808332       -5.3569677478659816E-009
   8.3333333333333329E-002  0.98333333333333317        1.4833346139576800E-004  -4.7004530675811114E-004  -8.3936351478135188E-005   21.370250317801659       -5.3924541290606420E-009
  0.11666666666666665        1.6666666666666663E-002   3.0085335415328305E-004   3.3058635921188215E-004  -6.9347037747627627E-005   8.6590288641957684        4.7464821691101111E-009
  0.11666666666666665        5.0000000000000003E-002   2.6160121214287724E-004   7.2387452832709193E-004  -2.8801401117435057E-004   8.7802343037983768        3.1126605390396911E-009
  0.11666666666666665        8.3333333333333329E-002   2.2496867376079949E-004   9.2936071434865071E-004  -6.2960267004874245E-004   9.0894787905932812        3.0567809915227340E-009
  0.11666666666666665       0.11666666666666665        1.9040206022430869E-004   1.0190297259667900E-003  -1.0337242759050759E-003   9.6063125262691322        2.9802344220924981E-009
  0.11666666666666665       0.15000000000000002        1.5779559664745536E-004   1.0449313236682608E-003  -1.4624597702621285E-003   10.311297219141936        2.8802331301230888E-009
  0.11666666666666665       0.18333333333333335        1.2731270976956894E-004   1.0375253969053429E-003  -1.8921042958693732E-003   11.160629044412984        2.7537995442999952E-009
  0.11666666666666665       0.21666666666666667        9.9235792938242432E-005   1.0106606597841562E-003  -2.3073138430415416E-003   12.103244996571027        2.5979869696518554E-009
  0.11666666666666665       0.25000000000000000        7.3880491967911360E-005   9.6850405840185521E-004  -2.6971564826062033E-003   13.094214297073513        2.4101027458478530E-009
  0.11666666666666665       0.28333333333333333        5.1556803201547738E-005   9.1122625571255595E-004  -3.0529252263436905E-003   14.100997407104851        2.1879208045999521E-009
  0.11666666666666665       0.31666666666666665        3.2550818208754390E-005   8.3836388237975125E-004  -3.3672895397206777E-003   15.103418982868245        1.9298694638875125E-009
  0.11666666666666665       0.35000000000000003        1.7110193085800079E-005   7.5019873988033212E-004  -3.6341890075068193E-003   16.090443419049151        1.6351828354896347E-009
  0.11666666666666665       0.38333333333333336        5.4283210652920619E-006   6.4794853738411786E-004  -3.8489615656830062E-003   17.056531544548310        1.3040088184604337E-009
  0.11666666666666665       0.41666666666666669       -2.3706187214625942E-006   5.3344072869120952E-004  -4.0084110025073137E-003   17.998930278539081        9.3747394656201744E-010
  0.11666666666666665       0.45000000000000001       -6.2421945350059778E-006   4.0867446836382194E-004  -4.1107134744040458E-003   18.916057883782173        5.3771842794397839E-010
  0.11666666666666665       0.48333333333333334       -6.2263852113503930E-006   2.7546923090156813E-004  -4.1551856498403938E-003   19.806632770393939        1.0791983680400602E-010
  0.11666666666666665       0.51666666666666661       -2.4476577174642470E-006   1.3527657775803701E-004  -4.1419911239782576E-003   20.669163469609661       -3.4767741788864492E-010
  0.11666666666666665       0.54999999999999993        4.8865606555100452E-006  -1.0836781673823609E-005  -4.0718693700612860E-003   21.501562108297723       -8.2373735913951474E-010
  0.11666666666666665       0.58333333333333326        1.5485847126810673E-005  -1.6206504941572607E-004  -3.9459547920576467E-003   22.300779888085234       -1.3138452600175432E-009
  0.11666666666666665       0.61666666666666659        2.8973073237505401E-005  -3.1764774800456557E-004  -3.7657285574507230E-003   23.062438311097466       -1.8105872573795367E-009
  0.11666666666666665       0.64999999999999991        4.4876680741869831E-005  -4.7661431969447607E-004  -3.5331225981165698E-003   23.780454012251290       -2.3057055075978439E-009
  0.11666666666666665       0.68333333333333324        6.2620566772007168E-005  -6.3752788901877714E-004  -3.2507780804562599E-003   24.446650295561085       -2.7903212171387359E-009
  0.11666666666666665       0.71666666666666656        8.1514915858356079E-005  -7.9823564812991389E-004  -2.9224510839543846E-003   25.050332683762846       -3.2552103495370188E-009
  0.11666666666666665       0.75000000000000000        1.0075245424658163E-004  -9.5557283316282000E-004  -2.5535564793575990E-003   25.577795483403808       -3.6911128337840937E-009
  0.11666666666666665       0.78333333333333333        1.1941501923117956E-004  -1.1048557222316530E-003  -2.1518486654989039E-003   26.011751558888214       -4.0890567876150641E-009
  0.11666666666666665       0.81666666666666665        1.3649540928482328E-004  -1.2387957412841883E-003  -1.7282594676345272E-003   26.330813853158613       -4.4406795809970312E-009
  0.11666666666666665       0.84999999999999998        1.5094098742171250E-004  -1.3451000470191237E-003  -1.2979547633557172E-003   26.509597608304475       -4.7385295756652290E-009
  0.11666666666666665       0.88333333333333330        1.6173331641287995E-004  -1.4013691783034750E-003  -8.8172406462380161E-004   26.521225748478546       -4.9763335969316147E-009
  0.11666666666666665       0.91666666666666663        1.6804204725397317E-004  -1.3647417870315194E-003  -5.0780040657338378E-004   26.347077619937881       -5.1492179842932417E-009
  0.11666666666666665       0.94999999999999996        1.6954309961238702E-004  -1.1516999914777323E-003  -2.1376578106538694E-004   26.005732647024285       -5.2538733363860501E-009
  0.11666666666666665       0.98333333333333317        1.6705294887232151E-004  -6.0001076530500003E-004  -4.6028929050245989E-005   25.627820371682830       -5.2886563336150549E-009
  0.15000000000000002        1.6666666666666663E-002   2.9184189623420793E-004   4.6523369710653332E-004  -6.5300143411841974E-005   9.4219395417306480        4.6576287254102011E-009
  0.15000000000000002        5.0000000000000003E-002   2.5409245840514227E-004   1.0178791841921205E-003  -2.7528490427006615E-004   9.5575042453012102        3.0517125250428823E-009
  0.15000000000000002        8.3333333333333329E-002   2.1847594884153275E-004   1.3104318435362336E-003  -6.0877182682355019E-004   9.9147080779103174        2.9963300833546480E-009
  0.15000000000000002       0.11666666666666665        1.8448943048288366E-004   1.4398319182170865E-003  -1.0065233431729105E-003   10.519988854739477        2.9205856379166395E-009
  0.15000000000000002       0.15000000000000002        1.5210553899667675E-004   1.4748364092965630E-003  -1.4284949333146636E-003   11.351052330106979        2.8217343756714586E-009
  0.15000000000000002       0.18333333333333335        1.2158410760418632E-004   1.4565838916114338E-003  -1.8478138021647468E-003   12.354923499079538        2.6968568472146570E-009
  0.15000000000000002       0.21666666666666667        9.3302446572603219E-005   1.4051889625553335E-003  -2.2461908759410605E-003   13.469088172077994        2.5430838043044579E-009
  0.15000000000000002       0.25000000000000000        6.7659766860981275E-005   1.3283168689932773E-003  -2.6106891845890426E-003   14.638179991835525        2.3578238198679324E-009
  0.15000000000000002       0.28333333333333333        4.5035020667475867E-005   1.2283099814417138E-003  -2.9318168255917008E-003   15.821910042909641        2.1389787007580763E-009
  0.15000000000000002       0.31666666666666665        2.5766644275304236E-005   1.1064783957989528E-003  -3.2026506156647562E-003   16.995218176676367        1.8851300338448840E-009
  0.15000000000000002       0.35000000000000003        1.0135794363743675E-005   9.6486131498394151E-004  -3.4185281189703862E-003   18.144446189067946        1.5956800108671287E-009
  0.15000000000000002       0.38333333333333336       -1.6505080287578376E-006   8.0642820464992416E-004  -3.5768977064001856E-003   19.262952060424020        1.2709340936438440E-009
  0.15000000000000002       0.41666666666666669       -9.4724873372548964E-006   6.3460512919197331E-004  -3.6770922636000848E-003   20.347812797100939        9.1212497841178242E-010
  0.15000000000000002       0.45000000000000001       -1.3303133543551945E-005   4.5268621255037454E-004  -3.7199658879120820E-003   21.397811546140424        5.2139786303577462E-010
  0.15000000000000002       0.48333333333333334       -1.3205806888988062E-005   2.6340600260138687E-004  -3.7074422072148165E-003   22.412296552828337        1.0180116190132427E-010
  0.15000000000000002       0.51666666666666661       -9.3270070888759652E-006   6.8767692860579471E-005  -3.6420646278898057E-003   23.390474108194329       -3.4267307220947618E-010
  0.15000000000000002       0.54999999999999993       -1.8889105848851040E-006  -1.2987898149604003E-004  -3.5266353357720102E-003   24.330869121864918       -8.0700658915827672E-010
  0.15000000000000002       0.58333333333333326        8.8142456864891032E-006  -3.3156709101605803E-004  -3.3640057428480728E-003   25.230840134532492       -1.2851090400167742E-009
  0.15000000000000002       0.61666666666666659        2.2413808834599646E-005  -5.3532442937196767E-004  -3.1570533574773376E-003   26.086116464490765       -1.7698629636506147E-009
  0.15000000000000002       0.64999999999999991        3.8458864976686227E-005  -7.3974006710126857E-004  -2.9088570236943511E-003   26.890350422150330       -2.2532675690578596E-009
  0.15000000000000002       0.68333333333333324        5.6406009899150240E-005  -9.4253842823000282E-004  -2.6230654226692789E-003   27.634675150833342       -2.7266638807921240E-009
  0.15000000000000002       0.71666666666666656        7.5612003827921142E-005  -1.1401781193085530E-003  -2.3044396080014991E-003   28.307250116108563       -3.1810171476076565E-009
  0.15000000000000002       0.75000000000000000        9.5335877613984111E-005  -1.3274304242654462E-003  -1.9595343792265631E-003   28.892780975164484       -3.6072322802394030E-009
  0.15000000000000002       0.78333333333333333        1.1475713430845266E-004  -1.4967792836224621E-003  -1.5974612969898944E-003   29.372052627118311       -3.9964823637939073E-009
  0.15000000000000002       0.81666666666666665        1.3301551788300639E-004  -1.6372772846542536E-003  -1.2306456712059015E-003   29.721696546912590       -4.3405315730549177E-009
  0.15000000000000002       0.84999999999999998        1.4927663458030928E-004  -1.7321223892983928E-003  -8.7544679236500260E-004   29.914927893710608       -4.6320367975277721E-009
  0.15000000000000002       0.88333333333333330        1.6283084593133709E-004  -1.7535948597164127E-003  -5.5242978759994610E-004   29.925289333488145       -4.8648141123125432E-009
  0.15000000000000002       0.91666666666666663        1.7324974321296778E-004  -1.6530266428976725E-003  -2.8584324211166972E-004   29.738436719324106       -5.0340580887847652E-009
  0.15000000000000002       0.94999999999999996        1.8066672670377374E-004  -1.3422365582587228E-003  -1.0105678786676268E-004   29.383158732561252       -5.1365049678897545E-009
  0.15000000000000002       0.98333333333333317        1.8630192031461872E-004  -6.6215402728689028E-004  -1.6114158611819457E-005   29.003291243525936       -5.1705331510472699E-009
  0.18333333333333335        1.6666666666666663E-002   2.7976599454410019E-004   5.8586802190108665E-004  -5.5334027901335663E-005   10.121857465286528        4.5512538182634898E-009
  0.18333333333333335        5.0000000000000003E-002   2.4374299926538739E-004   1.2904087713927772E-003  -2.3851292503949818E-004   10.264798459522593        2.9793343365308589E-009
  0.18333333333333335        8.3333333333333329E-002   2.0922885870956301E-004   1.6697088812982082E-003  -5.3683242824513803E-004   10.651952193703680        2.9248335142728621E-009
  0.18333333333333335       0.11666666666666665        1.7587678865949705E-004   1.8392167702565342E-003  -8.9774260682853359E-004   11.316390524590270        2.8503707762139729E-009
  0.18333333333333335       0.15000000000000002        1.4379168426258869E-004   1.8816905163451412E-003  -1.2820097866762029E-003   12.235036591221528        2.7532254340961737E-009
  0.18333333333333335       0.18333333333333335        1.1335326747324891E-004   1.8483632579386459E-003  -1.6613242094963786E-003   13.348790606419564        2.6305152396599585E-009
  0.18333333333333335       0.21666666666666667        8.5043089070398062E-005   1.7662323756705920E-003  -2.0157697426644704E-003   14.586465691272091        2.4794280170659100E-009
  0.18333333333333335       0.25000000000000000        5.9345314188278403E-005   1.6476073798775111E-003  -2.3316051967194125E-003   15.884060970979567        2.2974584543838938E-009
  0.18333333333333335       0.28333333333333333        3.6702246756589495E-005   1.4982114771048799E-003  -2.5996694143159173E-003   17.194328135930661        2.0826332455467500E-009
  0.18333333333333335       0.31666666666666665        1.7492163415406669E-005   1.3221401925170057E-003  -2.8143987842833011E-003   18.487494643425183        1.8337048225333663E-009
  0.18333333333333335       0.35000000000000003        2.0117698382964272E-006   1.1238979815778030E-003  -2.9732196298761968E-003   19.747285355507216        1.5502884653101345E-009
  0.18333333333333335       0.38333333333333336       -9.5386644470744628E-006   9.0859348423741782E-004  -3.0760518944640660E-003   20.966076175729192        1.2329186079192145E-009
  0.18333333333333335       0.41666666666666669       -1.7062916937347462E-005   6.8135063421651009E-004  -3.1247680502263786E-003   22.141092877589266        8.8301144716453062E-010