 TITLE = "Cavity_simu"
 Variables="X","Y","P","U","V","T","div"
 Zone I=          30 , J=          30 , F = POINT
   1.6666666666666663E-002   1.6666666666666663E-002   1.5346445495688076E-004   5.5665551403284343E-005  -5.5665619309258536E-005   8.5094916181260949       -4.0743584517506648E-009
   1.6666666666666663E-002   5.0000000000000003E-002   1.2069345073470376E-004   8.2385954189157258E-005  -1.9371724258418398E-004   8.5039236811380867       -2.9865905790127378E-009
   1.6666666666666663E-002   8.3333333333333329E-002   9.5971245150173822E-005   7.5449364767529674E-005  -3.5155265979825226E-004   8.5216563981000366       -2.9088522996573163E-009
   1.6666666666666663E-002  0.11666666666666665        7.7095977248491148E-005   6.0282260472865177E-005  -4.8728438040992209E-004   8.5596592957003033       -2.8134242002070264E-009
   1.6666666666666663E-002  0.15000000000000002        6.2298536400907624E-005   4.5937997875791835E-005  -5.9350473068063114E-004   8.6061616485167836       -2.7018989194431409E-009
   1.6666666666666663E-002  0.18333333333333335        5.0392103978950146E-005   3.4563860541305472E-005  -6.7400667706391166E-004   8.6514750693383871       -2.5760720735387710E-009
   1.6666666666666663E-002  0.21666666666666667        4.0600195694071337E-005   2.6037747405591097E-005  -7.3460836857718633E-004   8.6905646685895004       -2.4379106162205483E-009
   1.6666666666666663E-002  0.25000000000000000        3.2398677335509726E-005   1.9719944411642594E-005  -7.8036613918486871E-004   8.7220837562483080       -2.2895163018059328E-009
   1.6666666666666663E-002  0.28333333333333333        2.5417124662424007E-005   1.4993158280617642E-005  -8.1507931558712568E-004   8.7467018108021541       -2.1330835086545014E-009
   1.6666666666666663E-002  0.31666666666666665        1.9382528956600528E-005   1.1380423093670651E-005  -8.4145296536032826E-004   8.7658340175358749       -1.9708513486569462E-009
   1.6666666666666663E-002  0.35000000000000003        1.4086749602781724E-005   8.5389876355361236E-006  -8.6137243902123463E-004   8.7809455799752811       -1.8050506235111480E-009
   1.6666666666666663E-002  0.38333333333333336        9.3665839448280658E-006   6.2279810429453455E-006  -8.7613946508136053E-004   8.7932742774373516       -1.6378480457187976E-009
   1.6666666666666663E-002  0.41666666666666669        5.0907486526942554E-006   4.2776145796958384E-006  -8.8664511252300115E-004   8.8037809739641428       -1.4712919171292090E-009
   1.6666666666666663E-002  0.45000000000000001        1.1509279486315319E-006   2.5655261002621873E-006  -8.9348829951224661E-004   8.8131968245792187       -1.3072653289188628E-009
   1.6666666666666663E-002  0.48333333333333334       -2.5445954358347580E-006   9.9957566824447930E-007  -8.9705344219272523E-004   8.8220983716184804       -1.1474529916321143E-009
   1.6666666666666663E-002  0.51666666666666661       -6.0755806228232120E-006  -4.9504057716252746E-007  -8.9755801296345205E-004   8.8309830231248299       -9.9332569386472260E-010
   1.6666666666666663E-002  0.54999999999999993       -9.5133131009545144E-006  -1.9866709805032046E-006  -8.9507633206358460E-004   8.8403386312677430       -8.4614220653960598E-010
   1.6666666666666663E-002  0.58333333333333326       -1.2923426799787576E-005  -3.5484763265691793E-006  -8.8954121064162023E-004   8.8507087330420831       -7.0696427114129087E-010
   1.6666666666666663E-002  0.61666666666666659       -1.6368662250105479E-005  -5.2727835511560852E-006  -8.8071997215793648E-004   8.8627544507908702       -5.7667822573421665E-010
   1.6666666666666663E-002  0.64999999999999991       -1.9912517038282572E-005  -7.2916582147707418E-006  -8.6815554760360895E-004   8.8773069677802638       -4.5601772927445286E-010
   1.6666666666666663E-002  0.68333333333333324       -2.3625492370819079E-005  -9.8068223800664423E-006  -8.5105708036880016E-004   8.8953906844258128       -3.4558397430609761E-010
   1.6666666666666663E-002  0.71666666666666656       -2.7596962469023864E-005  -1.3130208323197993E-005  -8.2812005952296686E-004   8.9181764085465947       -2.4586189334430131E-010
   1.6666666666666663E-002  0.75000000000000000       -3.1957757055489714E-005  -1.7729941745696429E-005  -7.9725991617231318E-004   8.9467991481297435       -1.5723254794507147E-010
   1.6666666666666663E-002  0.78333333333333333       -3.6921316177751394E-005  -2.4260113630043375E-005  -7.5526986475015617E-004   8.9819565311499581       -7.9982423462077179E-011
   1.6666666666666663E-002  0.81666666666666665       -4.2854099751832242E-005  -3.3516824075299809E-005  -6.9749292861636400E-004   9.0232144895487298       -1.4310640346348880E-011
   1.6666666666666663E-002  0.84999999999999998       -5.0386630735330191E-005  -4.6189976065245001E-005  -6.1778612805324503E-004   9.0680297067819087        3.9665096727981020E-011
   1.6666666666666663E-002  0.88333333333333330       -6.0569354587665263E-005  -6.2133442906853631E-005  -5.0946270705500723E-004   9.1107338268381035        8.1903253710408075E-011
   1.6666666666666663E-002  0.91666666666666663       -7.5048051188605699E-005  -7.8569054837983492E-005  -3.6876020607122170E-004   9.1422786284403834        1.1243364572699477E-010
   1.6666666666666663E-002  0.94999999999999996       -9.6145392838364074E-005  -8.5972061326362211E-005  -2.0421908584376689E-004   9.1527766379555935        1.3135290338056604E-010
   1.6666666666666663E-002  0.98333333333333317       -1.2649183891775591E-004  -5.9123508850423945E-005  -5.9123511164094799E-005   9.1414002179231399        1.3882025130113052E-010
   5.0000000000000003E-002   1.6666666666666663E-002   1.5035022096225912E-004   1.9170840802622044E-004  -8.0377354540564692E-005   11.811175190380267       -2.9592547778553580E-009
   5.0000000000000003E-002   5.0000000000000003E-002   1.2114268593022767E-004   2.9480533777650054E-004  -2.9078817039780274E-004   11.789379363389408       -1.9151092395947034E-009
   5.0000000000000003E-002   8.3333333333333329E-002   9.7885997896864034E-005   2.8058008569668705E-004  -5.5050301893934395E-004   11.819200431303887       -1.8637944139421325E-009
   5.0000000000000003E-002  0.11666666666666665        7.9232980789270847E-005   2.3128045643143024E-004  -7.9090037167558103E-004   11.893828405030851       -1.8015401566373601E-009
   5.0000000000000003E-002  0.15000000000000002        6.4161783731005371E-005   1.8013144668019681E-004  -9.8987181693869272E-004   11.987332116431958       -1.7293877614676934E-009
   5.0000000000000003E-002  0.18333333333333335        5.1868699850573509E-005   1.3735438241430878E-004  -1.1463539854972339E-003   12.078926491112277       -1.6485060599577550E-009
   5.0000000000000003E-002  0.21666666666666667        4.1723761726716269E-005   1.0419844400070031E-004  -1.2667036494964190E-003   12.158034557073568       -1.5601720779016837E-009
   5.0000000000000003E-002  0.25000000000000000        3.3238902777847875E-005   7.9121785770480262E-005  -1.3585085460651387E-003   12.221883772722450       -1.4657483169908114E-009
   5.0000000000000003E-002  0.28333333333333333        2.6038898010265379E-005   6.0128506907203561E-005  -1.4283326805650401E-003   12.271854232554615       -1.3666559693821523E-009
   5.0000000000000003E-002  0.31666666666666665        1.9835448305157613E-005   4.5498741725038130E-005  -1.4812128102986916E-003   12.310818259047506       -1.2643432138921551E-009
   5.0000000000000003E-002  0.35000000000000003        1.4405530959697469E-005   3.3924136100515714E-005  -1.5207969070756939E-003   12.341726699676155       -1.1602485046943029E-009
   5.0000000000000003E-002  0.38333333333333336        9.5742493650304627E-006   2.4455538123084960E-005  -1.5496426808758099E-003   12.367061822242265       -1.0557601911849804E-009
   5.0000000000000003E-002  0.41666666666666669        5.2017319718608393E-006   1.6411581802111234E-005  -1.5694986430213216E-003   12.388747978505320       -9.5217568405652278E-010
   5.0000000000000003E-002  0.45000000000000001        1.1733428158219926E-006   9.2952347979971766E-006  -1.5815192083088751E-003   12.408250956818009       -8.5066598334631802E-010
   5.0000000000000003E-002  0.48333333333333334       -2.6075659810780435E-006   2.7278712334056220E-006  -1.5864121375185644E-003   12.426729243358661       -7.5225201167218678E-010
   5.0000000000000003E-002  0.51666666666666661       -6.2250495744694826E-006  -3.6022350251138691E-006  -1.5845287270455145E-003   12.445183952576901       -6.5779731604743118E-010
   5.0000000000000003E-002  0.54999999999999993       -9.7547125606765707E-006  -9.9838596854597276E-006  -1.5759060758805039E-003   12.464595775640515       -5.6801656959796012E-010
   5.0000000000000003E-002  0.58333333333333326       -1.3267164046720019E-005  -1.6727232787856287E-005  -1.5602652955465121E-003   12.486052082677400       -4.8349421070525284E-010
   5.0000000000000003E-002  0.61666666666666659       -1.6831438386041266E-005  -2.4217590789112688E-005  -1.5369630065283323E-003   12.510865683449540       -4.0470609296520271E-010
   5.0000000000000003E-002  0.64999999999999991       -2.0519313280413670E-005  -3.2986648104909609E-005  -1.5048876634452457E-003   12.540672588310120       -3.3203883739729712E-010
   5.0000000000000003E-002  0.68333333333333324       -2.4412019243264648E-005  -4.3808039677813889E-005  -1.4622899468162581E-003   12.577469159909214       -2.6580485382177166E-010
   5.0000000000000003E-002  0.71666666666666656       -2.8611771357217897E-005  -5.7812194551523649E-005  -1.4065437818610740E-003   12.623509077884725       -2.0625262478826678E-010
   5.0000000000000003E-002  0.75000000000000000       -3.3261891154865496E-005  -7.6588252669153957E-005  -1.3338636407752892E-003   12.680933189242772       -1.5357360955842170E-010
   5.0000000000000003E-002  0.78333333333333333       -3.8580820415169502E-005  -1.0217985551783481E-004  -1.2390756476977870E-003   12.750969533426902       -1.0790680024866384E-010
   5.0000000000000003E-002  0.81666666666666665       -4.4916256751647986E-005  -1.3676291563730140E-004  -1.1156867549074853E-003   12.832557684294986       -6.9342098903135696E-011
   5.0000000000000003E-002  0.84999999999999998       -5.2823701034810279E-005  -1.8157561137077265E-004  -9.5676182996825437E-004   12.920397996621222       -3.7923110832172036E-011
   5.0000000000000003E-002  0.88333333333333330       -6.3163302835956485E-005  -2.3427695411252098E-004  -7.5755610328870837E-004   13.002855184959293       -1.3649911062563191E-011
   5.0000000000000003E-002  0.91666666666666663       -7.7178091799004933E-005  -2.8317364441921646E-004  -5.2151050041550459E-004   13.061221652734190        3.5183427352092345E-012
   5.0000000000000003E-002  0.94999999999999996       -9.6448804706202479E-005  -2.9530503538040276E-004  -2.7211405265825845E-004   13.074540971801985        1.3660754819011522E-011
   5.0000000000000003E-002  0.98333333333333317       -1.2253885384417077E-004  -1.9262358727076333E-004  -7.4376569851450431E-005   13.040911912672060        1.6892098830822988E-011
   8.3333333333333329E-002   1.6666666666666663E-002   1.3889803782824329E-004   3.3620560573690373E-004  -6.4119939726156374E-005   14.794717249957040       -2.8341074890560203E-009
   8.3333333333333329E-002   5.0000000000000003E-002   1.1471401098025181E-004   5.4068818228631495E-004  -2.4408932506483476E-004   14.750712650743443       -1.8300536173271320E-009
   8.3333333333333329E-002   8.3333333333333329E-002   9.4316263867952536E-005   5.3502078126707370E-004  -4.8469813978565954E-004   14.779619695222619       -1.7819726310860928E-009
   8.3333333333333329E-002  0.11666666666666665        7.7173732049951407E-005   4.5507741644480054E-004  -7.2253856215155144E-004   14.875781533336138       -1.7237951214013614E-009
   8.3333333333333329E-002  0.15000000000000002        6.2874651421173142E-005   3.6269388947328125E-004  -9.2992663488206031E-004   15.002807759319294       -1.6565068995319510E-009
   8.3333333333333329E-002  0.18333333333333335        5.0986121910884202E-005   2.8090832020571450E-004  -1.0995609571682980E-003   15.130249157069235       -1.5812166099041236E-009
   8.3333333333333329E-002  0.21666666666666667        4.1070969334129746E-005   2.1518610902575351E-004  -1.2337530008028127E-003   15.241940873270043       -1.4991396869550033E-009
   8.3333333333333329E-002  0.25000000000000000        3.2731141968859353E-005   1.6428382453479454E-004  -1.3380979069674487E-003   15.333049394803654       -1.4115792211326361E-009
   8.3333333333333329E-002  0.28333333333333333        2.5630838269420116E-005   1.2510501208266015E-004  -1.4184124091387493E-003   15.404960794234144       -1.3199023705598445E-009
   8.3333333333333329E-002  0.31666666666666665        1.9498905386362726E-005   9.4572250519909927E-005  -1.4795823796489535E-003   15.461432743056720       -1.2255100807854330E-009
   8.3333333333333329E-002  0.35000000000000003        1.4120370499926337E-005   7.0182705199611217E-005  -1.5253304404309297E-003   15.506496227628343       -1.1297988584176716E-009
   8.3333333333333329E-002  0.38333333333333336        9.3247407586860947E-006   5.0051684883092085E-005  -1.5583394554886175E-003   15.543608273101636       -1.0341145294679582E-009
   8.3333333333333329E-002  0.41666666666666669        4.9749204465853305E-006   3.2795139338800677E-005  -1.5804632640023341E-003   15.575479786601363       -9.3970149337655601E-010
   8.3333333333333329E-002  0.45000000000000001        9.5808005759069342E-007   1.7387318124906997E-005  -1.5929183994150358E-003   15.604190085500418       -8.4765619751212690E-010
   8.3333333333333329E-002  0.48333333333333334       -2.8214184174752998E-006   3.0360352400487664E-006  -1.5964257710300753E-003   15.631386398581245       -7.5889636591826661E-010
   8.3333333333333329E-002  0.51666666666666661       -6.4474032287700171E-006  -1.0919504161652423E-005  -1.5913001237582553E-003   15.658486790664663       -6.7415583331715753E-010
   8.3333333333333329E-002  0.54999999999999993       -9.9960651966229134E-006  -2.5096729525684123E-005  -1.5774926775127375E-003   15.686865676516435       -5.9400434983085393E-010
   8.3333333333333329E-002  0.58333333333333326       -1.3539420299986728E-005  -4.0156087626030929E-005  -1.5545917692415946E-003   15.718023281755354       -5.1888074132505624E-010
   8.3333333333333329E-002  0.61666666666666659       -1.7148605933291890E-005  -5.6898852393348420E-005  -1.5217839727541497E-003   15.753739035685124       -4.4912607161974594E-010
   8.3333333333333329E-002  0.64999999999999991       -2.0897707512903837E-005  -7.6386914677610031E-005  -1.4777778138416395E-003   15.796190068659401       -3.8500936857047141E-010
   8.3333333333333329E-002  0.68333333333333324       -2.4869141389622272E-005  -1.0008568338707558E-004  -1.4206976420152871E-003   15.847980191232374       -3.2674427096271441E-010
   8.3333333333333329E-002  0.71666666666666656       -2.9162180520970222E-005  -1.3000630279204413E-004  -1.3479720729090206E-003   15.911972410518915       -2.7449814990476717E-010
   8.3333333333333329E-002  0.75000000000000000       -3.3907008135048020E-005  -1.6876841048196566E-004  -1.2562779623201577E-003   15.990757367778926       -2.2839667787252771E-010
   8.3333333333333329E-002  0.78333333333333333       -3.9287561288392092E-005  -2.1939803997398006E-004  -1.1416676244354195E-003   16.085546663949287       -1.8852589758408533E-010
   8.3333333333333329E-002  0.81666666666666665       -4.5576726659410390E-005  -2.8448723397247918E-004  -1.0001140231128715E-003   16.194308972974614       -1.5493361715107623E-010
   8.3333333333333329E-002  0.84999999999999998       -5.3185191634471434E-005  -3.6403071378035453E-004  -8.2885953380450162E-004   16.309174229814388       -1.2763070548343913E-010
   8.3333333333333329E-002  0.88333333333333330       -6.2715308882254760E-005  -4.5075331850387033E-004  -6.2913379844639324E-004   16.413737315073380       -1.0659287862091471E-010
   8.3333333333333329E-002  0.91666666666666663       -7.4982938097175239E-005  -5.2092251122823167E-004  -4.1095417359401909E-004   16.482428181986769       -9.1762749308832436E-011
   8.3333333333333329E-002  0.94999999999999996       -9.0909503997882335E-005  -5.1725005687551550E-004  -2.0065673567439986E-004   16.487924688494807       -8.3052098184821510E-011
   8.3333333333333329E-002  0.98333333333333317       -1.1110985720314950E-004  -3.1803647232533276E-004  -5.1036314145583587E-005   16.431700131311963       -8.0344225630163413E-011
  0.11666666666666665        1.6666666666666663E-002   1.2224454692432265E-004   4.3557028194394923E-004  -3.5244828244930332E-005   17.398940281987496       -2.6717349821230030E-009
  0.11666666666666665        5.0000000000000003E-002   1.0365047306529482E-004   7.3222403553005726E-004  -1.4617612330813787E-004   17.337029977225694       -1.7211697986990737E-009
  0.11666666666666665        8.3333333333333329E-002   8.6827984668895887E-005   7.5052497332690543E-004  -3.1260747073114385E-004   17.353821546744609       -1.6772193564551507E-009
  0.11666666666666665       0.11666666666666665        7.1967442566602571E-005   6.5730854137017276E-004  -4.9250247880426774E-004   17.449806496067904       -1.6242416092659973E-009
  0.11666666666666665       0.15000000000000002        5.9142700143904141E-005   5.3611605579649427E-004  -6.6076780678389787E-004   17.586298399405106       -1.5631495967408093E-009
  0.11666666666666665       0.18333333333333335        4.8235313116612508E-005   4.2252969907370902E-004  -8.0617713461963699E-004   17.728253889609743       -1.4949730568064590E-009
  0.11666666666666665       0.21666666666666667        3.8998708344602708E-005   3.2778422766925917E-004  -9.2620468843290175E-004   17.855659310375337       -1.4208473980703573E-009
  0.11666666666666665       0.25000000000000000        3.1145716550820361E-005   2.5242653640567643E-004  -1.0226007073420996E-003   17.961425182052537       -1.3420004699518651E-009
  0.11666666666666665       0.28333333333333333        2.4405098359807093E-005   1.9325519614957865E-004  -1.0985791899955433E-003   18.046033123865730       -1.2597345766356127E-009
  0.11666666666666665       0.31666666666666665        1.8544796312555837E-005   1.4640267819148291E-004  -1.1573899142329487E-003   18.113157405364586       -1.1754000587508445E-009
  0.11666666666666665       0.35000000000000003        1.3374943049244423E-005   1.0846750699729398E-004  -1.2017571599379764E-003   18.167122692926238       -1.0903558739488312E-009
  0.11666666666666665       0.38333333333333336        8.7420752748906657E-006   7.6774769441082864E-005  -1.2337561022390234E-003   18.211788119979150       -1.0059144309616103E-009
  0.11666666666666665       0.41666666666666669        4.5210812683024450E-006   4.9305086596064456E-005  -1.2548653905906202E-003   18.250248543797106       -9.2327307317464566E-010
  0.11666666666666665       0.45000000000000001        6.0770932076703836E-007   2.4532069250128291E-005  -1.2660650127949979E-003   18.284907265596505       -8.4344489755644979E-010
  0.11666666666666665       0.48333333333333334       -3.0875277518222569E-006   1.2586081041683695E-006  -1.2679250187894531E-003   18.317674136260493       -7.6721176801982857E-010
  0.11666666666666665       0.51666666666666661       -6.6440734914453353E-006  -2.1524871326148365E-005  -1.2606679200173323E-003   18.350181441135948       -6.9512217596573445E-010
  0.11666666666666665       0.54999999999999993       -1.0134977510544172E-005  -4.4763790278648638E-005  -1.2442029815256726E-003   18.383983795509540       -6.2753461997112903E-010
  0.11666666666666665       0.58333333333333326       -1.3629830166290843E-005  -6.9456687155008317E-005  -1.2181362679331807E-003   18.420737358915027       -5.6467870071692794E-010
  0.11666666666666665       0.61666666666666659       -1.7197340836318927E-005  -9.6779045938101782E-005  -1.1817633053367821E-003   18.462354680131888       -5.0670770921149022E-010
  0.11666666666666665       0.64999999999999991       -2.0907963396778008E-005  -1.2822038011165964E-004  -1.1340558351800830E-003   18.511112407400130       -4.5373247932294081E-010
  0.11666666666666665       0.68333333333333324       -2.4837121493301089E-005  -1.6572481536947313E-004  -1.0736634357787220E-003   18.569651910458347       -4.0583790408138531E-010
  0.11666666666666665       0.71666666666666656       -2.9069894106268433E-005  -2.1178885332838736E-004  -9.9896734520239089E-004   18.640759569518064       -3.6308827342304562E-010
  0.11666666666666665       0.75000000000000000       -3.3708521257837542E-005  -2.6939810465664941E-004  -9.0824923093872547E-004   18.726754553909515       -3.2552681297065567E-010
  0.11666666666666665       0.78333333333333333       -3.8884689333696626E-005  -3.4155718572649314E-004  -8.0007074615665247E-004   18.828276912712845       -2.9317373875792363E-010
  0.11666666666666665       0.81666666666666665       -4.4778721811234431E-005  -4.2995911162754948E-004  -6.7399333911591223E-004   18.942320086497134       -2.6602445680340425E-010
  0.11666666666666665       0.84999999999999998       -5.1645745420465572E-005  -5.3202287559147611E-004  -5.3178380216871988E-004   19.059608894725493       -2.4404899975905003E-010
  0.11666666666666665       0.88333333333333330       -5.9839948787939105E-005  -6.3506026025418117E-004  -3.7921044572314806E-004   19.162126986465893       -2.2719254602621142E-010
  0.11666666666666665       0.91666666666666663       -6.9802726474910536E-005  -7.0565743359728410E-004  -2.2834821713824314E-004   19.223281021005814       -2.1537687865808008E-010
  0.11666666666666665       0.94999999999999996       -8.1927389669418928E-005  -6.7142208604074817E-004  -9.9738713501811818E-005   19.217049342785991       -2.0850235253611071E-010
  0.11666666666666665       0.98333333333333317       -9.6145840708220008E-005  -3.9114818954034687E-004  -2.2075398289526317E-005   19.150747237717006       -2.0645002612833252E-010
  0.15000000000000002        1.6666666666666663E-002   1.0357431347729553E-004   4.7918855039648964E-004  -8.3735259770527185E-006   19.580298553415084       -2.4744315783647650E-009
  0.15000000000000002        5.0000000000000003E-002   9.0293643960422703E-005   8.4017732302238369E-004  -4.9013927814070900E-005   19.511417635244012       -1.5899851734703374E-009
  0.15000000000000002        8.3333333333333329E-002   7.7196579411173999E-005   8.9029530945887740E-004  -1.3030631300504087E-004   19.512498648274082       -1.5510063216400694E-009
  0.15000000000000002       0.11666666666666665        6.4950266493796939E-005   8.0232451698550897E-004  -2.3519772262498310E-004   19.591335724302347       -1.5042781855226228E-009
  0.15000000000000002       0.15000000000000002        5.3963992820496325E-005   6.7028938064868176E-004  -3.4612179748439413E-004   19.714406593054893       -1.4506216505782987E-009
  0.15000000000000002       0.18333333333333335        4.4361919813130106E-005   5.3871155217702122E-004  -4.5106774593265840E-004   19.848138920831619       -1.3909659214370040E-009
  0.15000000000000002       0.21666666666666667        3.6067674836469277E-005   4.2443726544997239E-004  -5.4387517688893382E-004   19.971724661528885       -1.3263445094828519E-009
  0.15000000000000002       0.25000000000000000        2.8909092224330427E-005   3.3075745366453930E-004  -6.2246320213736855E-004   20.076585459413138       -1.2578910031646462E-009
  0.15000000000000002       0.28333333333333333        2.2691325101937602E-005   2.5540635679912552E-004  -6.8696688149995615E-004   20.161889530232866       -1.1868312411403986E-009
  0.15000000000000002       0.31666666666666665        1.7233356998896732E-005   1.9453550492038710E-004  -7.3844022358152670E-004   20.230431264981455       -1.1144656250367674E-009
  0.15000000000000002       0.35000000000000003        1.2380114776995537E-005   1.4439721694102430E-004  -7.7813558825502770E-004   20.286041559960246       -1.0421320902585796E-009
  0.15000000000000002       0.38333333333333336        8.0024400455023466E-006   1.0188257674376493E-004  -8.0717423169276417E-004   20.332340812857716       -9.7113987175285327E-010
  0.15000000000000002       0.41666666666666669        3.9925943899431174E-006   6.4562956150472623E-005  -8.2643068358156197E-004   20.372324459943403       -9.0267089235176318E-010
  0.15000000000000002       0.45000000000000001        2.5901527492458285E-007   3.0557618620052122E-005  -8.3651453875241985E-004   20.408358749238829       -8.3766535426284781E-010
  0.15000000000000002       0.48333333333333334       -3.2782821210844486E-006  -1.6342818850862303E-006  -8.3778724588960771E-004   20.442333626518121       -7.7673640109588490E-010
  0.15000000000000002       0.51666666666666661       -6.6913459578338433E-006  -3.3290523303959927E-005  -8.3038585201534380E-004   20.475851646786808       -7.2017055567728111E-010
  0.15000000000000002       0.54999999999999993       -1.0047061194373664E-005  -6.5604532129299396E-005  -8.1424444185938317E-004   20.510407849256669       -6.6802316380388388E-010
  0.15000000000000002       0.58333333333333326       -1.3409239000133784E-005  -9.9813064008020551E-005  -7.8911407808938581E-004   20.547548339146541       -6.2023392693490165E-010
  0.15000000000000002       0.61666666666666659       -1.6840196416786930E-005  -1.3732094732314448E-004  -7.5458880025322810E-004   20.588999738175328       -5.7670957484372287E-010
  0.15000000000000002       0.64999999999999991       -2.0401992362298113E-005  -1.7982272698912108E-004  -7.1015205672265850E-004   20.636746273880320       -5.3736437413513805E-010
  0.15000000000000002       0.68333333333333324       -2.4157545652324664E-005  -2.2940050465015645E-004  -6.5526645161696545E-004   20.692999558928658       -5.0213068165244623E-010
  0.15000000000000002       0.71666666666666656       -2.8172049026456506E-005  -2.8853610135858010E-004  -5.8953963391594126E-004   20.759961728134652       -4.7095438703362302E-010
  0.15000000000000002       0.75000000000000000       -3.2515453237179094E-005  -3.5990107746940506E-004  -5.1300755405924488E-004   20.839237175744451       -4.4378572084530221E-010
  0.15000000000000002       0.78333333333333333       -3.7267249846080464E-005  -4.4566431063107937E-004  -4.2657596584159312E-004   20.930731111158085       -4.2057075096829655E-010
  0.15000000000000002       0.81666666666666665       -4.2524828772125263E-005  -5.4586677785002841E-004  -3.3263860477217733E-004   21.030944025563688       -4.0124560748630578E-010
  0.15000000000000002       0.84999999999999998       -4.8414711966309517E-005  -6.5514005868873369E-004  -2.3582331401717725E-004   21.130838773128367       -3.8573358439666916E-010
  0.15000000000000002       0.88333333333333330       -5.5098078210975118E-005  -7.5667485163187389E-004  -1.4366491650312808E-004   21.214123535477810       -3.7394462873430179E-010
  0.15000000000000002       0.91666666666666663       -6.2741211130346809E-005  -8.1189155616183785E-004  -6.6678450850626500E-005   21.258260184838090       -3.6577634541026804E-010
  0.15000000000000002       0.94999999999999996       -7.1381649400845259E-005  -7.4388402677003887E-004  -1.6591910372736801E-005   21.243552534371126       -3.6111582929661268E-010
  0.15000000000000002       0.98333333333333317       -8.0578926149420840E-005  -4.1308254529799074E-004   1.4105197007917006E-007   21.181439658616611       -3.5984177385050848E-010
  0.18333333333333335        1.6666666666666663E-002   8.5238308448699592E-005   4.7693857039020289E-004   1.0623427328490586E-005   21.317460639652658       -2.2448593543951401E-009
  0.18333333333333335        5.0000000000000003E-002   7.6454449149676433E-005   8.6993925835892228E-004   2.3751744709582789E-005   21.253111371420921       -1.4382643420153812E-009
  0.18333333333333335        8.3333333333333329E-002   6.6807668028061402E-005   9.5171146670441822E-004   1.3865937580252053E-005   21.241968393479187       -1.4050374381752856E-009
  0.18333333333333335       0.11666666666666665        5.7168793440328873E-005   8.8242457448010187E-004  -2.2758964637457838E-005   21.296710654433213       -1.3655291563295646E-009
  0.18333333333333335       0.15000000000000002        4.8122226378042300E-005   7.5591283200090553E-004  -7.7558492639445342E-005   21.392802333114719       -1.3204459181886258E-009
  0.18333333333333335       0.18333333333333335        3.9952005858656143E-005   6.2076219622848124E-004  -1.4028673013859270E-004   21.502566009116642       -1.2705901816789655E-009
  0.18333333333333335       0.21666666666666667        3.2718162077466486E-005   4.9799870618227513E-004  -2.0309147071218006E-004   21.607370407778880       -1.2168653959910430E-009
  0.18333333333333335       0.25000000000000000        2.6355051656738417E-005   3.9383752781965871E-004  -2.6114504304092885E-004   21.698500912725383       -1.1602847766779834E-009
  0.18333333333333335       0.28333333333333333        2.0745873661862011E-005   3.0765389597019730E-004  -3.1196905545432656E-004   21.774063796507338       -1.1019806258911330E-009
  0.18333333333333335       0.31666666666666665        1.5764882680781714E-005   2.3634502272131677E-004  -3.5455284445280440E-004   21.835678983074800       -1.0432053235576860E-009
  0.18333333333333335       0.35000000000000003        1.1295761557385343E-005   1.7639690148583945E-004  -3.8866675187688483E-004   21.886214560890540       -9.8530715650271133E-010
  0.18333333333333335       0.38333333333333336        7.2367162973087738E-006   1.2468321676538337E-004  -4.1442849847617353E-004   21.928594756754961       -9.2965637542730822E-010
  0.18333333333333335       0.41666666666666669        3.4996874188180513E-006   7.8653543242950089E-005  -4.3206333505092830E-004   21.965335044208867       -8.7750026196058498E-010