 TITLE = "Cavity_simu"
 Variables="X","Y","P","U","V","T","div"
 Zone I=          30 , J=          30 , F = POINT
   1.6666666666666663E-002   1.6666666666666663E-002   3.0056578561973532E-004   1.8558011748441559E-005  -1.8557994010397222E-005   6.0112683701245242        1.0642826602652589E-009
   1.6666666666666663E-002   5.0000000000000003E-002   2.5828730342942818E-004   4.7088022851548508E-005  -8.4203997252778925E-005   6.0552976191680283        8.1717384118121239E-010
   1.6666666666666663E-002   8.3333333333333329E-002   2.1893912428083329E-004   6.0649191159881247E-005  -1.9194118381726821E-004   6.1526475025657534        8.2964258640155775E-010
   1.6666666666666663E-002  0.11666666666666665        1.8290177781676113E-004   6.5340505179834482E-005  -3.1793085230944721E-004   6.3051031878548667        8.4120961672123906E-010
   1.6666666666666663E-002  0.15000000000000002        1.5006582554292949E-004   6.6317540748930939E-005  -4.4958887000987264E-004   6.5065088714427937        8.5249078456139937E-010
   1.6666666666666663E-002  0.18333333333333335        1.2031831033387892E-004   6.6159410047706918E-005  -5.8206579219375405E-004   6.7454077409584050        8.6427460153915003E-010
   1.6666666666666663E-002  0.21666666666666667        9.3664923305590461E-005   6.5675674114230525E-005  -7.1390084732661106E-004   7.0086152895094003        8.7747022495254789E-010
   1.6666666666666663E-002  0.25000000000000000        7.0209788969461152E-005   6.4836450550454693E-005  -8.4441294248261258E-004   7.2842003717831396        8.9305079780874208E-010
   1.6666666666666663E-002  0.28333333333333333        5.0103484934668963E-005   6.3361771068798158E-005  -9.7261113401778880E-004   7.5630864857103237        9.1199380295933774E-010
   1.6666666666666663E-002  0.31666666666666665        3.3499063937491463E-005   6.0997133365702731E-005  -1.0969700076653955E-003   7.8393070903541657        9.3521984427524796E-010
   1.6666666666666663E-002  0.35000000000000003        2.0522774447219445E-005   5.7599713016610444E-005  -1.2155668224018497E-003   8.1094354644233864        9.6353169453528009E-010
   1.6666666666666663E-002  0.38333333333333336        1.1255972681743607E-005   5.3136961497949077E-005  -1.3263034642316146E-003   8.3717577338854898        9.9755598573225690E-010
   1.6666666666666663E-002  0.41666666666666669        5.7242941301412055E-006   4.7654070270933090E-005  -1.4270944620797107E-003   8.6255486457933461        1.0376911812465250E-009
   1.6666666666666663E-002  0.45000000000000001        3.8917008021898138E-006   4.1235067587096876E-005  -1.5159835645751213E-003   8.8705701897705893        1.0840659754422777E-009
   1.6666666666666663E-002  0.48333333333333334        5.6577583618548082E-006   3.3967999141648664E-005  -1.5911865942942140E-003   9.1067652927534848        1.1365131969212627E-009
   1.6666666666666663E-002  0.51666666666666661        1.0856452434943504E-005   2.5919589616862987E-005  -1.6510741442014691E-003   9.3340722565330871        1.1945621930867234E-009
   1.6666666666666663E-002  0.54999999999999993        1.9254752228704313E-005   1.7121956562131982E-005  -1.6941156495135870E-003   9.5522977104046021        1.2574504410813037E-009
   1.6666666666666663E-002  0.58333333333333326        3.0549383046836270E-005   7.5708369187274690E-006  -1.7188083999677380E-003   9.7610140770328595        1.3241520556363413E-009
   1.6666666666666663E-002  0.61666666666666659        4.4360833300712750E-005  -2.7683497891878498E-006  -1.7236108418044252E-003   9.9594691603467407        1.3934190908591621E-009
   1.6666666666666663E-002  0.64999999999999991        6.0224184869695600E-005  -1.3952460662614780E-005  -1.7068899837317758E-003   10.146504536758410        1.4638317223951078E-009
   1.6666666666666663E-002  0.68333333333333324        7.7576532394148153E-005  -2.6056747494151482E-005  -1.6668807256135804E-003   10.320478012537293        1.5338540168899351E-009
   1.6666666666666663E-002  0.71666666666666656        9.5740216512521753E-005  -3.9178481356407428E-005  -1.6016454445005742E-003   10.479177769100732        1.6018928210813355E-009
   1.6666666666666663E-002  0.75000000000000000        1.1389967706919277E-004  -5.3443547252686035E-005  -1.5090233614206341E-003   10.619707413752650        1.6663579808541551E-009
   1.6666666666666663E-002  0.78333333333333333        1.3106762664200064E-004  -6.8994571388288691E-005  -1.3865851862449932E-003   10.738321650769416        1.7257219837168991E-009
   1.6666666666666663E-002  0.81666666666666665        1.4603435859256451E-004  -8.5905262023816935E-005  -1.2316852944279006E-003   10.830223223615018        1.7785772429487756E-009
   1.6666666666666663E-002  0.84999999999999998        1.5729471364042951E-004  -1.0389678681972910E-004  -1.0418831855465848E-003   10.889443095245163        1.8236889359757313E-009
   1.6666666666666663E-002  0.88333333333333330        1.6295616028499455E-004  -1.2158203508339707E-004  -8.1640430224795210E-004   10.909232950349875        1.8600414576630531E-009
   1.6666666666666663E-002  0.91666666666666663        1.6066244300648287E-004  -1.3460663945272241E-004  -5.6021556526320254E-004   10.884165965251482        1.8868763444063186E-009
   1.6666666666666663E-002  0.94999999999999996        1.4765812077284865E-004  -1.3117648799603260E-004  -2.9443237463783710E-004   10.816928751927117        1.9037202821092780E-009
   1.6666666666666663E-002  0.98333333333333317        1.2138139382391283E-004  -8.1627895616538326E-005  -8.1627927456566553E-005   10.736359544401825        1.9104016936097312E-009
   5.0000000000000003E-002   1.6666666666666663E-002   3.0171643991232369E-004   8.5982759375317542E-005  -4.8866721521403465E-005   6.9863392041992824        8.6142185789020442E-010
   5.0000000000000003E-002   5.0000000000000003E-002   2.6050712967450181E-004   1.9925811265605076E-004  -2.0281550012287119E-004   7.0701408896988767        5.9237336910711313E-010
   5.0000000000000003E-002   8.3333333333333329E-002   2.2225572036683734E-004   2.5581810057561847E-004  -4.4241726548127820E-004   7.2625650453991346        5.9865079560239565E-010
   5.0000000000000003E-002  0.11666666666666665        1.8687690638996850E-004   2.7806613128125311E-004  -7.2432208461868782E-004   7.5686076085711704        6.0375103527743335E-010
   5.0000000000000003E-002  0.15000000000000002        1.5431354109955440E-004   2.8396734516479241E-004  -1.0230394490091921E-003   7.9750847960687361        6.0812958141420737E-010
   5.0000000000000003E-002  0.18333333333333335        1.2458860618141783E-004   2.8318981765026400E-004  -1.3252426898895343E-003   8.4572474854512265        6.1235672435544508E-010
   5.0000000000000003E-002  0.21666666666666667        9.7804342889708476E-005   2.7928619661553549E-004  -1.6240485153407882E-003   8.9869929110225950        6.1708353010780925E-010
   5.0000000000000003E-002  0.25000000000000000        7.4112470177194241E-005   2.7263514400985463E-004  -1.9149455859686667E-003   9.5394551428730097        6.2300493930411704E-010
   5.0000000000000003E-002  0.28333333333333333        5.3682306297476022E-005   2.6253742393727685E-004  -2.1937216897801948E-003   10.096285385574641        6.3082092327526595E-010
   5.0000000000000003E-002  0.31666666666666665        3.6675642522176201E-005   2.4830259691483348E-004  -2.4558438805630236E-003   10.645879938288328        6.4119584641808558E-010
   5.0000000000000003E-002  0.35000000000000003        2.3227505064775341E-005   2.2963270142470517E-004  -2.6965854645393844E-003   11.181893197257418        6.5471725697180405E-010
   5.0000000000000003E-002  0.38333333333333336        1.3430683645332443E-005   2.0663799987061151E-004  -2.9113827946960461E-003   11.701359385019838        6.7185490504328982E-010
   5.0000000000000003E-002  0.41666666666666669        7.3236178665721291E-006   1.7970565658854826E-004  -3.0961443648711423E-003   12.203170316799747        6.9292306094370648E-010
   5.0000000000000003E-002  0.45000000000000001        4.8821666810896806E-006   1.4933640703115674E-004  -3.2474081292585763E-003   12.687089975335134        7.1804960241617088E-010
   5.0000000000000003E-002  0.48333333333333334        6.0152435749441007E-006   1.1600423485936891E-004  -3.3623426132715004E-003   13.153184261077838        7.4715702765362768E-010
   5.0000000000000003E-002  0.51666666666666661        1.0563167722266106E-005   8.0064514405517380E-005  -3.4386361595674340E-003   13.601481316755008        7.7995873084754641E-010
   5.0000000000000003E-002  0.54999999999999993        1.8296794450206676E-005   4.1717831066564789E-005  -3.4743353860827008E-003   14.031730412299384        8.1597079738598630E-010
   5.0000000000000003E-002  0.58333333333333326        2.8915424827249449E-005   1.0221205257434939E-006  -3.4676897228715082E-003   14.443197166453880        8.5453610604736135E-010
   5.0000000000000003E-002  0.61666666666666659        4.2042031623317112E-005  -4.2065028989004419E-005  -3.4170418109926342E-003   14.834477706039952        8.9485591549601229E-010
   5.0000000000000003E-002  0.64999999999999991        5.7215102920342279E-005  -8.7637050047478329E-005  -3.3207813223450683E-003   15.203329341012150        9.3602541516302207E-010
   5.0000000000000003E-002  0.68333333333333324        7.3876976414857451E-005  -1.3580229593088491E-004  -3.1773603607952944E-003   15.546508894050374        9.7707117136663912E-010
   5.0000000000000003E-002  0.71666666666666656        9.1358586983161691E-005  -1.8666762783607261E-004  -2.9853608614951151E-003   15.859591509252523        1.0169891933795028E-009
   5.0000000000000003E-002  0.75000000000000000        1.0885995255785132E-004  -2.4031739125366760E-004  -2.7436198650940243E-003   16.136722172542843        1.0547830733842467E-009
   5.0000000000000003E-002  0.78333333333333333        1.2542475726289815E-004  -2.9670377069733906E-004  -2.4514749046868891E-003   16.370245708958755        1.0895015913753303E-009
   5.0000000000000003E-002  0.81666666666666665        1.3990716788383977E-004  -3.5525242853402019E-004  -2.1093183354501397E-003   16.550207947204392        1.1202744877591986E-009
   5.0000000000000003E-002  0.84999999999999998        1.5093240098097192E-004  -4.1377408821745927E-004  -1.7198958786087530E-003   16.663919934913007        1.1463454786114768E-009
   5.0000000000000003E-002  0.88333333333333330        1.5686588904976486E-004  -4.6584553088517902E-004  -1.2912338647549247E-003   16.696378778067754        1.1671010633623746E-009
   5.0000000000000003E-002  0.91666666666666663        1.5584099827021305E-004  -4.9490151052287057E-004  -8.4286413326586538E-004   16.633985978701926        1.1820938637663314E-009
   5.0000000000000003E-002  0.94999999999999996        1.4596357963397540E-004  -4.6117617968225041E-004  -4.1835265840570049E-004   16.478347941263230        1.1910593709224537E-009
   5.0000000000000003E-002  0.98333333333333317        1.2585969273138699E-004  -2.7302048876658424E-004  -1.0976471743226286E-004   16.287846187587771        1.1939253171180941E-009
   8.3333333333333329E-002   1.6666666666666663E-002   2.9985149735164805E-004   1.9955946390704850E-004  -6.4709952807572309E-005   7.9026478133842968        9.5074345401666149E-010
   8.3333333333333329E-002   5.0000000000000003E-002   2.5961486372457832E-004   4.4148088385026420E-004  -2.6656059896681364E-004   8.0198674148588598        6.5337544402632730E-010
   8.3333333333333329E-002   8.3333333333333329E-002   2.2233893950202209E-004   5.6584664579481254E-004  -5.7921010833312885E-004   8.2992199131531006        6.5692151371421481E-010
   8.3333333333333329E-002  0.11666666666666665        1.8761100378932404E-004   6.1848485101752163E-004  -9.4775251218883155E-004   8.7504146145601123        6.5841767107888138E-010
   8.3333333333333329E-002  0.15000000000000002        1.5533506767705370E-004   6.3354066174976928E-004  -1.3390271419752833E-003   9.3532379250479458        6.5835907211986289E-010
   8.3333333333333329E-002  0.18333333333333335        1.2560623257346388E-004   6.3026362258149086E-004  -1.7334709803409891E-003   10.068895044362518        6.5736396014093312E-010
   8.3333333333333329E-002  0.21666666666666667        9.8612170561429316E-005   6.1662687851449195E-004  -2.1190795993374966E-003   10.853547216370117        6.5614111886824755E-010
   8.3333333333333329E-002  0.25000000000000000        7.4572268233637128E-005   5.9439131731359423E-004  -2.4872793413842414E-003   11.668970964348480        6.5545474776940171E-010
   8.3333333333333329E-002  0.28333333333333333        5.3705399080870335E-005   5.6303291070928206E-004  -2.8307548548923310E-003   12.487593662556618        6.5608702325137269E-010
   8.3333333333333329E-002  0.31666666666666665        3.6211531214535518E-005   5.2192958157685695E-004  -3.1427550924285020E-003   13.292504372596612        6.5879792766898593E-010
   8.3333333333333329E-002  0.35000000000000003        2.2256565219528165E-005   4.7117784190430433E-004  -3.4171855899438725E-003   14.074829312742082        6.6428247798289153E-010
   8.3333333333333329E-002  0.38333333333333336        1.1957212732863408E-005   4.1162683553591336E-004  -3.6489221915324489E-003   14.830690062229385        6.7312513462453039E-010
   8.3333333333333329E-002  0.41666666666666669        5.3677863821275365E-006   3.4458385234108874E-004  -3.8340276073809028E-003   15.558878023383850        6.8575443674251391E-010
   8.3333333333333329E-002  0.45000000000000001        2.4716817039092947E-006   2.7145781321319639E-004  -3.9697633982758752E-003   16.259422481069777        7.0240333471457972E-010
   8.3333333333333329E-002  0.48333333333333334        3.1784728816960226E-006   1.9347454575504579E-004  -4.0544205831624450E-003   16.932785931209800        7.2308339979683389E-010
   8.3333333333333329E-002  0.51666666666666661        7.3251573019002230E-006   1.1151836142887786E-004  -4.0870511448225563E-003   17.579375863916109        7.4758035902683893E-010
   8.3333333333333329E-002  0.54999999999999993        1.4678648598928959E-005   2.6104774183038751E-005  -4.0671926564641043E-003   18.199176837821589        7.7547129134769577E-010
   8.3333333333333329E-002  0.58333333333333326        2.4936535451411234E-005  -6.2543116697032233E-005  -3.9946599713667564E-003   18.791422332956742        8.0615614184154083E-010
   8.3333333333333329E-002  0.61666666666666659        3.7724085129266490E-005  -1.5435964873242462E-004  -3.8694479697053809E-003   19.354290026136781        8.3889503937201182E-010
   8.3333333333333329E-002  0.64999999999999991        5.2586902287177402E-005  -2.4929106802363318E-004  -3.6917597615896604E-003   19.884620843367784        8.7284632299677867E-010
   8.3333333333333329E-002  0.68333333333333324        6.8979999550419693E-005  -3.4717530336059741E-004  -3.4621536361827956E-003   20.377649488343703        9.0710339760435854E-010
   8.3333333333333329E-002  0.71666666666666656        8.6254888006120017E-005  -4.4765234342978655E-004  -3.1817953484279769E-003   20.826707296557203        9.4073051258580787E-010
   8.3333333333333329E-002  0.75000000000000000        1.0364645536577524E-004  -5.5005263177972422E-004  -2.8528163222876152E-003   21.222830424652589        9.7279813891792966E-010
   8.3333333333333329E-002  0.78333333333333333        1.2026102273873787E-004  -6.5310704873597814E-004  -2.4788226954717118E-003   21.554200680985719        1.0024177581752225E-009
   8.3333333333333329E-002  0.81666666666666665        1.3506697184933097E-004  -7.5413742863347810E-004  -2.0656909158875414E-003   21.805422065974945        1.0287755387167197E-009
   8.3333333333333329E-002  0.84999999999999998        1.4689233437321136E-004  -8.4705568538787014E-004  -1.6229467030164100E-003   21.956948666264736        1.0511634635640421E-009
   8.3333333333333329E-002  0.88333333333333330        1.5444580675116093E-004  -9.1789114419920693E-004  -1.1662814324921826E-003   21.985924583122806        1.0690069940366698E-009
   8.3333333333333329E-002  0.91666666666666663        1.5641002296047272E-004  -9.3539582573479900E-004  -7.2211116045379456E-004   21.872262195620312        1.0818875344209555E-009
   8.3333333333333329E-002  0.94999999999999996        1.5171969683389416E-004  -8.3190216685179836E-004  -3.3540225718915989E-004   21.620355286018654        1.0895586204096031E-009
   8.3333333333333329E-002  0.98333333333333317        1.4019894756180695E-004  -4.6453489587608345E-004  -8.1749727775243423E-005   21.322530722344961        1.0919551079319190E-009
  0.11666666666666665        1.6666666666666663E-002   2.9426181959471608E-004   3.3274122114879102E-004  -6.8471770737977620E-005   8.7511256729257170        1.0710281012765721E-009
  0.11666666666666665        5.0000000000000003E-002   2.5529945199464853E-004   7.2627331025805031E-004  -2.8459525140498511E-004   8.8945311017743833        7.3424979291081272E-010
  0.11666666666666665        8.3333333333333329E-002   2.1901253900525889E-004   9.3177697531346393E-004  -6.2266845165416518E-004   9.2471513830973429        7.3410978511379010E-010
  0.11666666666666665       0.11666666666666665        1.8489348364340551E-004   1.0215569491226185E-003  -1.0231284290854875E-003   9.8243637358104881        7.3075441184289325E-010
  0.11666666666666665       0.15000000000000002        1.5286262850954267E-004   1.0467572970368423E-003  -1.4481424864867820E-003   10.600028111416298        7.2473426912522676E-010
  0.11666666666666665       0.18333333333333335        1.2309029952738181E-004   1.0368826730510928E-003  -1.8735342879245579E-003   11.522340410674087        7.1673428997387489E-010
  0.11666666666666665       0.21666666666666667        9.5851440195621966E-005   1.0052650143010536E-003  -2.2831828095545023E-003   12.532523635852003        7.0754334335898506E-010
  0.11666666666666665       0.25000000000000000        7.1444752688404838E-005   9.5611137269122840E-004  -2.6653412133859338E-003   13.579503794376492        6.9802195794277377E-010
  0.11666666666666665       0.28333333333333333        5.0156105732777309E-005   8.9013851934869356E-004  -3.0106913189177019E-003   14.626735860232039        6.8906753740438642E-010
  0.11666666666666665       0.31666666666666665        3.2239553791367108E-005   8.0780672628074333E-004  -3.3116737899660199E-003   15.652079762050644        6.8157603519414245E-010
  0.11666666666666665       0.35000000000000003        1.7900567392671266E-005   7.1052636436566953E-004  -3.5624689149316678E-003   16.644145806198605        6.7639754127574170E-010
  0.11666666666666665       0.38333333333333336        7.2789293543845888E-006   6.0065605525539811E-004  -3.7591100107224576E-003   17.598193490653006        6.7428387439533166E-010
  0.11666666666666665       0.41666666666666669        4.3540610148526300E-007   4.8099800210257360E-004  -3.8994479192050843E-003   18.513070383493041        6.7582987860539956E-010
  0.11666666666666665       0.45000000000000001       -2.6538127166083999E-006   3.5423162292794945E-004  -3.9829000420296152E-003   19.389350989636007        6.8141641591454305E-010
  0.11666666666666665       0.48333333333333334       -2.0944720448460875E-006   2.2250602704754921E-004  -4.0100481015157346E-003   20.228275991121048        6.9117091607354131E-010
  0.11666666666666665       0.51666666666666661        1.9335264901984217E-006   8.7267078226946950E-005  -3.9821976901662573E-003   21.031077198816408        7.0496158585155178E-010
  0.11666666666666665       0.54999999999999993        9.1843638397955066E-006  -5.0693343628673067E-005  -3.9010067283370498E-003   21.798445653603888        7.2242778252629147E-010
  0.11666666666666665       0.58333333333333326        1.9350811580850368E-005  -1.9102689666370570E-004  -3.7682574648713022E-003   22.530051738727863        7.4302743992282760E-010
  0.11666666666666665       0.61666666666666659        3.2062705162583625E-005  -3.3353688823340995E-004  -3.5858083944956222E-003   23.224102267126312        7.6608516232090640E-010
  0.11666666666666665       0.64999999999999991        4.6879497743190505E-005  -4.7788010018806593E-004  -3.3557302764682601E-003   23.876936109747387        7.9083335106228114E-010
  0.11666666666666665       0.68333333333333324        6.3279237929978510E-005  -6.2331359987974864E-004  -3.0806090167377082E-003   24.482644759856566        8.1644691528326430E-010
  0.11666666666666665       0.71666666666666656        8.0647862385053616E-005  -7.6849325930923801E-004  -2.7639880336546617E-003   25.032677644529070        8.4207488725007718E-010
  0.11666666666666665       0.75000000000000000        9.8273267628002780E-005  -9.1125532055428855E-004  -2.4109233947664315E-003   25.515370581419038        8.6687102808513661E-010
  0.11666666666666665       0.78333333333333333        1.1534817083821916E-004  -1.0481833929948674E-003  -2.0286379263470206E-003   25.915348673047088        8.9002473446786468E-010
  0.11666666666666665       0.81666666666666665        1.3098484105623489E-004  -1.1735399659669680E-003  -1.6272907604719844E-003   26.212877702313044        9.1079162094220845E-010
  0.11666666666666665       0.84999999999999998        1.4424556203822107E-004  -1.2767551026800776E-003  -1.2209329533965294E-003   26.383665815151250        9.2852272745580500E-010
  0.11666666666666665       0.88333333333333330        1.5420096697894804E-004  -1.3369999336228689E-003  -8.2878995068182224E-004   26.400822804360370        9.4269071368446866E-010
  0.11666666666666665       0.91666666666666663        1.6005580549958921E-004  -1.3122331030048012E-003  -4.7701408858493295E-004   26.243740545269009        9.5291154134091727E-010
  0.11666666666666665       0.94999999999999996        1.6144235323698407E-004  -1.1181686571643049E-003  -2.0061915621175891E-004   25.925780638522742        9.5896030526121390E-010
  0.11666666666666665       0.98333333333333317        1.5905691415843098E-004  -5.8941230613704506E-004  -4.3127716697971629E-005   25.567539252516408        9.6078009697436739E-010
  0.15000000000000002        1.6666666666666663E-002   2.8508895430327645E-004   4.6459853344055614E-004  -6.3385503338133153E-005   9.5300435253647393        1.2219111616626477E-009
  0.15000000000000002        5.0000000000000003E-002   2.4770193037777571E-004   1.0150866412896203E-003  -2.6793260162857240E-004   9.6919024272683831        8.3476424730943855E-010
  0.15000000000000002        8.3333333333333329E-002   2.1246725618521883E-004   1.3070761320173496E-003  -5.9397183689584646E-004   10.099903927876644        8.3001626752232660E-010
  0.15000000000000002       0.11666666666666665        1.7895035020526760E-004   1.4366847300977357E-003  -9.8393874521869574E-004   10.775489487149574        8.2060941375416974E-010
  0.15000000000000002       0.15000000000000002        1.4716122614970406E-004   1.4709434295129583E-003  -1.3982385498809528E-003   11.688627410404129        8.0716280013992669E-010
  0.15000000000000002       0.18333333333333335        1.1737250301366758E-004   1.4495489582799837E-003  -1.8096991154969398E-003   12.777110160198644        7.9044329762134602E-010
  0.15000000000000002       0.21666666666666667        8.9958261213332860E-005   1.3919289131870847E-003  -2.1993807282142657E-003   13.969452849578778        7.7133819470498466E-010
  0.15000000000000002       0.25000000000000000        6.5304622778045575E-005   1.3058975142962296E-003  -2.5536723160783543E-003   15.203073863267994        7.5082724586283955E-010
  0.15000000000000002       0.28333333333333333        4.3769365582815377E-005   1.1946676120448640E-003  -2.8626373970499211E-003   16.432924976982989        7.2995343450288352E-010
  0.15000000000000002       0.31666666666666665        2.5659547076097825E-005   1.0609206764794796E-003  -3.1192979220567366E-003   17.631575490612526        7.0978938265103819E-010
  0.15000000000000002       0.35000000000000003        1.1211376059990765E-005   9.0828715490497082E-004  -3.3193774918431817E-003   18.784920542616014        6.9139369663490102E-010
  0.15000000000000002       0.38333333333333336        5.7205342179277701E-007   7.4125470018811669E-004  -3.4610957862273245E-003   19.887284413978939        6.7575014594395411E-010
  0.15000000000000002       0.41666666666666669       -6.2104667323049887E-006   5.6444777571722162E-004  -3.5448062514662122E-003   20.937721655752533        6.6368722366830224E-010
  0.15000000000000002       0.45000000000000001       -9.1859772899713891E-006   3.8188703392447968E-004  -3.5724592686408427E-003   21.937709312312588        6.5578746534684929E-010
  0.15000000000000002       0.48333333333333334       -8.4902696575673784E-006   1.9652371901852244E-004  -3.5469842674440140E-003   22.889766379797720        6.5231799367508614E-010
  0.15000000000000002       0.51666666666666661       -4.3287035501113028E-006   1.0130181852358919E-005  -3.4717154293619980E-003   23.796529847191771        6.5322218901348039E-010
  0.15000000000000002       0.54999999999999993        3.0382613654355919E-006  -1.7649704534531655E-004  -3.3499657474534176E-003   24.660018312385365        6.5818183802440755E-010
  0.15000000000000002       0.58333333333333326        1.3302527457718850E-005  -3.6312421144280721E-004  -3.1848139479178231E-003   25.480982760286281        6.6669877171049441E-010
  0.15000000000000002       0.61666666666666659        2.6106847632023429E-005  -5.4957389073654109E-004  -2.9791286534450738E-003   26.258324686541570        6.7816042972207446E-010
  0.15000000000000002       0.64999999999999991        4.1035751811933654E-005  -7.3522656838624395E-004  -2.7358232519884324E-003   26.988578723038067        6.9188274554043971E-010
  0.15000000000000002       0.68333333333333324        5.7603192353622068E-005  -9.1859784670990526E-004  -2.4583137465856225E-003   27.665444862893263        7.0713860808591100E-010
  0.15000000000000002       0.71666666666666656        7.5243064381223196E-005  -1.0970075488170757E-003  -2.1511361418499889E-003   28.279338509323850        7.2318069588295231E-010
  0.15000000000000002       0.75000000000000000        9.3309299517888299E-005  -1.2662776042109329E-003  -1.8206641547172146E-003   28.816923709720911        7.3926476919228268E-010
  0.15000000000000002       0.78333333333333333        1.1109119578293436E-004  -1.4202623095915694E-003  -1.4758483687026904E-003   29.260637717185677        7.5467478620472317E-010
  0.15000000000000002       0.81666666666666665        1.2784723689904321E-004  -1.5497829360516789E-003  -1.1288735924922955E-003   29.588383836171793        7.6874993697184646E-010
  0.15000000000000002       0.84999999999999998        1.4285865018118447E-004  -1.6401428341503003E-003  -7.9560064152988698E-004   29.774065143941456        7.8091151600734321E-010
  0.15000000000000002       0.88333333333333330        1.5550783132139848E-004  -1.6657569234110881E-003  -4.9559886560593771E-004   29.790907341371867        7.9068793006065174E-010
  0.15000000000000002       0.91666666666666663        1.6540784751292677E-004  -1.5794821911278875E-003  -2.5136859172442442E-004   29.622473594268328        7.9773563622931309E-010
  0.15000000000000002       0.94999999999999996        1.7266083842600266E-004  -1.2931097334941844E-003  -8.5573301120262760E-005   29.292355489937762        8.0185470719904006E-010
  0.15000000000000002       0.98333333333333317        1.7838897418218888E-004  -6.4503795256836132E-004  -1.2497959129641051E-005   28.933996641781690        8.0299768874178556E-010
  0.18333333333333335        1.6666666666666663E-002   2.7298797617295847E-004   5.8048763282191583E-004  -5.2503552295539979E-005   10.241225657196761        1.4029500295872910E-009
  0.18333333333333335        5.0000000000000003E-002   2.3739466688982533E-004   1.2788375797125203E-003  -2.2759641823839175E-004   10.413841868600056        9.5463268713624760E-010
  0.18333333333333335        8.3333333333333329E-002   2.0330208457539528E-004   1.6565159389778095E-003  -5.1474786895766881E-004   10.857357947981836        9.4439531715673208E-010
  0.18333333333333335       0.11666666666666665        1.7044944910862180E-004   1.8264085553635551E-003  -8.6394453414749875E-004   11.599160280712583        9.2779500228401535E-010
  0.18333333333333335       0.15000000000000002        1.3898835419603564E-004   1.8684534752059757E-003  -1.2368785427591417E-003   12.607874337527123        9.0552897819007327E-010
  0.18333333333333335       0.18333333333333335        1.0931660711452950E-004   1.8318578809270363E-003  -1.6052368891233660E-003   13.814506901151740        8.7845642912642852E-010
  0.18333333333333335       0.21666666666666667        8.1916399460682773E-005   1.7427434579989243E-003  -1.9486786890680491E-003   15.138102141681930        8.4757505701416047E-010
  0.18333333333333335       0.25000000000000000        5.7261629275590579E-005   1.6136793326780908E-003  -2.2529834113353239E-003   16.506612065020505        8.1399974087570381E-010
  0.18333333333333335       0.28333333333333333        3.5774252408092230E-005   1.4515719028025866E-003  -2.5087043882746178E-003   17.867306484731103        7.7894301078740291E-010
  0.18333333333333335       0.31666666666666665        1.7798873877120333E-005   1.2622938063929232E-003  -2.7103212345659898E-003   19.187534613505740        7.4369292668574616E-010
  0.18333333333333335       0.35000000000000003        3.5815083269150428E-006   1.0523278669677888E-003  -2.8556554591815829E-003   20.450328778536488        7.0957739033497558E-010
  0.18333333333333335       0.38333333333333336       -6.7456864751312450E-006   8.2857743093973533E-004  -2.9453005617015625E-003   21.649048578269838        6.7789758507151576E-010
  0.18333333333333335       0.41666666666666669       -1.3167243553562707E-005   5.9747827418286524E-004  -2.9819432812274475E-003   22.783152817362737        6.4981441126425732E-010