 TITLE = "Cavity_simu"
 Variables="X","Y","P","U","V","T","div"
 Zone I=          30 , J=          30 , F = POINT
   1.6666666666666663E-002   1.6666666666666663E-002   3.0642378641034104E-004   1.7862984946460766E-005  -1.7862865048609783E-005   5.9847058942725058        7.1938710589653648E-009
   1.6666666666666663E-002   5.0000000000000003E-002   2.6401618071279456E-004   4.6073656912275211E-005  -8.1799298265105669E-005   6.0228581611910776        5.3246633465245385E-009
   1.6666666666666663E-002   8.3333333333333329E-002   2.2438758916110049E-004   5.9604320314191018E-005  -1.8747709958070368E-004   6.1087217216246232        5.2299887467674444E-009
   1.6666666666666663E-002  0.11666666666666665        1.8792319638390463E-004   6.4310290431501981E-005  -3.1139153815616617E-004   6.2451404678317317        5.1002250816764572E-009
   1.6666666666666663E-002  0.15000000000000002        1.5451332030329794E-004   6.5354067483322232E-005  -4.4105572887462785E-004   6.4276487979332186        4.9315566699736912E-009
   1.6666666666666663E-002  0.18333333333333335        1.2404708392830545E-004   6.5377486513639577E-005  -5.7178712201504155E-004   6.6468030199856587        4.7198362145700612E-009
   1.6666666666666663E-002  0.21666666666666667        9.6541515968615038E-005   6.5233687920026272E-005  -7.0239814343664810E-004   6.8913889786943354        4.4608873461457477E-009
   1.6666666666666663E-002  0.25000000000000000        7.2123881570884869E-005   6.4902639209730973E-005  -8.3253432703799923E-004   7.1511053316495374        4.1508170208273687E-009
   1.6666666666666663E-002  0.28333333333333333        5.0979377816349144E-005   6.4084884557571997E-005  -9.6152171851964115E-004   7.4180126674354092        3.7863226421373797E-009
   1.6666666666666663E-002  0.31666666666666665        3.3305834601939080E-005   6.2483199616501257E-005  -1.0880896835053296E-003   7.6867803273491226        3.3649804409910389E-009
   1.6666666666666663E-002  0.35000000000000003        1.9282819140098158E-005   5.9893735290958848E-005  -1.2104665142380526E-003   7.9541958244659190        2.8855037881650447E-009
   1.6666666666666663E-002  0.38333333333333336        9.0513884825406228E-006   5.6210495228657540E-005  -1.3265706575332108E-003   8.2184430885345403        2.3479637032385037E-009
   1.6666666666666663E-002  0.41666666666666669        2.7001052982677515E-006   5.1401021184131995E-005  -1.4341821055804910E-003   8.4784706873547098        1.7539668675792264E-009
   1.6666666666666663E-002  0.45000000000000001        2.5482393804983126E-007   4.5477032079914915E-005  -1.5310601111652676E-003   8.7335593973609313        1.1067893398650219E-009
   1.6666666666666663E-002  0.48333333333333334        1.6709562908153472E-006   3.8468039682076159E-005  -1.6150051576230414E-003   8.9830660760193251        4.1146368950917278E-010
   1.6666666666666663E-002  0.51666666666666661        6.8271549075125435E-006   3.0401242864321243E-005  -1.6838744387314502E-003   9.2262766999914412       -3.2518436944919960E-010
   1.6666666666666663E-002  0.54999999999999993        1.5519241271962385E-005   2.1289625425735407E-005  -1.7355653306838875E-003   9.4623097409515111       -1.0945584646981921E-009
   1.6666666666666663E-002  0.58333333333333326        2.7453251555315935E-005   1.1128666544172239E-005  -1.7679836723361658E-003   9.6900353990312205       -1.8863837672900702E-009
   1.6666666666666663E-002  0.61666666666666659        4.2236778946239176E-005  -9.9992170246029436E-008  -1.7790124229644590E-003   9.9079965685643998       -2.6888782649015994E-009
   1.6666666666666663E-002  0.64999999999999991        5.9368194370213594E-005  -1.2421461256183796E-005  -1.7664910725027861E-003   10.114327926334170       -3.4890071537192063E-009
   1.6666666666666663E-002  0.68333333333333324        7.8223535291233905E-005  -2.5861363443768128E-005  -1.7282083771665579E-003   10.306671379255270       -4.2728162629162431E-009
   1.6666666666666663E-002  0.71666666666666656        9.8040564452355289E-005  -4.0443027941803614E-005  -1.6619041407584839E-003   10.482082698881825       -5.0258335956496203E-009
   1.6666666666666663E-002  0.75000000000000000        1.1789851751976932E-004  -5.6184591070575950E-005  -1.5652767010686805E-003   10.636920294927696       -5.7335209739661774E-009
   1.6666666666666663E-002  0.78333333333333333        1.3669045906995340E-004  -7.3078082698727526E-005  -1.4360142292206240E-003   10.766711639076155       -6.3817538510646532E-009
   1.6666666666666663E-002  0.81666666666666665        1.5308364500002584E-004  -9.1002026574961192E-005  -1.2719343422645816E-003   10.866026117543102       -6.9573049292157019E-009
   1.6666666666666663E-002  0.84999999999999998        1.6546386495335354E-004  -1.0945411516309351E-004  -1.0714784406200550E-003   10.928492979116335       -7.4483067630248811E-009
   1.6666666666666663E-002  0.88333333333333330        1.7186746000846665E-004  -1.2684362550150564E-004  -8.3518095483839437E-004   10.947402181957290       -7.8446695398262656E-009
   1.6666666666666663E-002  0.91666666666666663        1.6993258846242728E-004  -1.3872490325346671E-004  -5.6961269246847096E-004   10.918074249534861       -8.1384333959488853E-009
   1.6666666666666663E-002  0.94999999999999996        1.5698629015953972E-004  -1.3346321806666057E-004  -2.9742484552286506E-004   10.844932217828818       -8.3240378912635693E-009
   1.6666666666666663E-002  0.98333333333333317        1.3063762684147883E-004  -8.1981023070026521E-005  -8.1980883095084686E-005   10.759673678300462       -8.3984965102215647E-009
   5.0000000000000003E-002   1.6666666666666663E-002   3.0763417216670747E-004   8.3810866318407052E-005  -4.8084807462518543E-005   6.9342916439196038        5.3377780190669299E-009
   5.0000000000000003E-002   5.0000000000000003E-002   2.6625831547824624E-004   1.9612239459487426E-004  -2.0014463736064188E-004   7.0064591135273293        3.5000831408518729E-009
   5.0000000000000003E-002   8.3333333333333329E-002   2.2771082456002754E-004   2.5257483710875686E-004  -4.3748579906271936E-004   7.1760130510045332        3.4328341315392752E-009
   5.0000000000000003E-002  0.11666666666666665        1.9190154706376819E-004   2.7487756858074968E-004  -7.1710887035023832E-004   7.4500966181688719        3.3418019618897121E-009
   5.0000000000000003E-002  0.15000000000000002        1.5876819323924166E-004   2.8107756155807263E-004  -1.0137351752214283E-003   7.8190261342392899        3.2244770742373419E-009
   5.0000000000000003E-002  0.18333333333333335        1.2833588967748981E-004   2.8109018660388621E-004  -1.3144397103452318E-003   8.2622244402323606        3.0781768262794218E-009
   5.0000000000000003E-002  0.21666666666666667        1.0071946944411324E-004   2.7863335180094691E-004  -1.6129408002423479E-003   8.7556269402882361        2.9002462913901850E-009
   5.0000000000000003E-002  0.25000000000000000        7.6093704979101956E-005   2.7411057339104671E-004  -1.9054119780330015E-003   9.2776335411729978        2.6882632439551024E-009
   5.0000000000000003E-002  0.28333333333333333        5.4660224855772031E-005   2.6671757825422361E-004  -2.1882649966686639E-003   9.8120914607458616        2.4402368754145032E-009
   5.0000000000000003E-002  0.31666666666666665        3.6621331377964654E-005   2.5555486472204816E-004  -2.4574011947129945E-003   10.348544301126632        2.1547907763652674E-009
   5.0000000000000003E-002  0.35000000000000003        2.2160051160054073E-005   2.4004109898503791E-004  -2.7082432221699356E-003   10.880943044801063        1.8313227245422836E-009
   5.0000000000000003E-002  0.38333333333333336        1.1423619974789245E-005   2.1996504971200109E-004  -2.9360408548034242E-003   11.406000191016400        1.4701363433913817E-009
   5.0000000000000003E-002  0.41666666666666669        4.5091890509578518E-006   1.9539651559930004E-004  -3.1361793449111580E-003   11.921857823245777        1.0725429398783515E-009
   5.0000000000000003E-002  0.45000000000000001        1.4519360310582669E-006   1.6656406328799625E-004  -3.3043837887123959E-003   12.427237932307802        6.4093492232325522E-010
   5.0000000000000003E-002  0.48333333333333334        2.2158439104279336E-006   1.3374510254115938E-004  -3.4368027973547838E-003   12.920970420149985        1.7883220685549484E-010
   5.0000000000000003E-002  0.51666666666666661        6.6867056396193612E-006   9.7187841157050117E-005  -3.5299971781313170E-003   13.401731177881224       -3.0909931515374356E-010
   5.0000000000000003E-002  0.54999999999999993        1.4666214944365458E-005   5.7072725828667513E-005  -3.5808760273062980E-003   13.867864192555512       -8.1706328942249273E-010
   5.0000000000000003E-002  0.58333333333333326        2.5865749665659211E-005   1.3511913220506739E-005  -3.5866241183365923E-003   14.317222863873408       -1.3381928298762322E-009
   5.0000000000000003E-002  0.61666666666666659        3.9898683182905657E-005  -3.3422685158825007E-005  -3.5446560510313660E-003   14.747008605543957       -1.8646638300263974E-009
   5.0000000000000003E-002  0.64999999999999991        5.6270572975994438E-005  -8.3657407815148556E-005  -3.4526189357857312E-003   15.153603298447521       -2.3878649196840129E-009
   5.0000000000000003E-002  0.68333333333333324        7.4367078379711509E-005  -1.3707527056934656E-004  -3.3084519949092487E-003   15.532392332785735       -2.8986215962201189E-009
   5.0000000000000003E-002  0.71666666666666656        9.3439670796710317E-005  -1.9347995558208794E-004  -3.1105056562970627E-003   15.877564690079376       -3.3874647002371527E-009
   5.0000000000000003E-002  0.75000000000000000        1.1258896780201065E-004  -2.5254604987035912E-004  -2.8577350094092999E-003   16.181864409053595       -3.8449308095017676E-009
   5.0000000000000003E-002  0.78333333333333333        1.3074502998023651E-004  -3.1368469347830115E-004  -2.5500297487127338E-003   16.436269279344955       -4.2618784144160538E-009
   5.0000000000000003E-002  0.81666666666666665        1.4664414506548111E-004  -3.7565171594302010E-004  -2.1888537060334914E-003   16.629625151940644       -4.6298036671804654E-009
   5.0000000000000003E-002  0.84999999999999998        1.5880505683976432E-004  -4.3552259181761578E-004  -1.7785918412646774E-003   16.748463558984231       -4.9411390985742987E-009
   5.0000000000000003E-002  0.88333333333333330        1.6552007937910209E-004  -4.8623771162910556E-004  -1.3294271879914785E-003   16.777822431580763       -5.1895203533741663E-009
   5.0000000000000003E-002  0.91666666666666663        1.6490881259191407E-004  -5.1099063538441914E-004  -8.6333607448003025E-004   16.705512565966490       -5.3700075480084264E-009
   5.0000000000000003E-002  0.94999999999999996        1.5514377599605022E-004  -4.7058633328320534E-004  -4.2613552927363497E-004   16.536562329573350       -5.4792509314449678E-009
   5.0000000000000003E-002  0.98333333333333317        1.3499290860146459E-004  -2.7519999978891063E-004  -1.1123786172229983E-004   16.335317991290669       -5.5155934645945148E-009
   8.3333333333333329E-002   1.6666666666666663E-002   3.0594521026176266E-004   1.9647374564455816E-004  -6.4577895091189484E-005   7.8270929735555956        5.2685685662280657E-009
   8.3333333333333329E-002   5.0000000000000003E-002   2.6548269890192737E-004   4.3720450224393016E-004  -2.6626275953274786E-004   7.9273326888123510        3.4517017924451388E-009
   8.3333333333333329E-002   8.3333333333333329E-002   2.2788542192465585E-004   5.6145877350491054E-004  -5.7888741238987088E-004   8.1732835452376946        3.3845414838806764E-009
   8.3333333333333329E-002  0.11666666666666665        1.9271813365360433E-004   6.1420786634896790E-004  -9.4747835105115936E-004   8.5778616871733036        3.2937562868123882E-009
   8.3333333333333329E-002  0.15000000000000002        1.5987047213511621E-004   6.2993096214411894E-004  -1.3390355272520109E-003   9.1261002457896954        3.1768980675306313E-009
   8.3333333333333329E-002  0.18333333333333335        1.2943619033214685E-004   6.2841551861404028E-004  -1.7345095162092207E-003   9.7854537475794992        3.0313592469521922E-009
   8.3333333333333329E-002  0.21666666666666667        1.0161409081735898E-004   6.1796114909649111E-004  -2.1226613578785424E-003   10.518085844155140        2.8545732687346170E-009
   8.3333333333333329E-002  0.25000000000000000        7.6644587736900808E-005   6.0033556783097106E-004  -2.4957427870350062E-003   11.290546467339508        2.6442182818331439E-009
   8.3333333333333329E-002  0.28333333333333333        5.4775423078473063E-005   5.7472246306542536E-004  -2.8471194781316128E-003   12.078379450728312        2.3984130133325454E-009
   8.3333333333333329E-002  0.31666666666666665        3.6242836828933510E-005   5.3997418215241634E-004  -3.1704073305066057E-003   12.866208081015271        2.1158940936155668E-009
   8.3333333333333329E-002  0.35000000000000003        2.1257055086497504E-005   4.9551567349180440E-004  -3.4594590633505742E-003   13.645442310261355        1.7961659399406971E-009
   8.3333333333333329E-002  0.38333333333333336        9.9874088169891059E-006   4.4148088212984124E-004  -3.7086517286876357E-003   14.411596646266373        1.4396184097251186E-009
   8.3333333333333329E-002  0.41666666666666669        2.5475590297771772E-006   3.7852289172866607E-004  -3.9131553632952851E-003   15.162244236779408        1.0476116623497900E-009
   8.3333333333333329E-002  0.45000000000000001       -1.0169099220643609E-006   3.0754397082063961E-004  -4.0690571467623358E-003   15.895779689650317        6.2253373636633746E-010
   8.3333333333333329E-002  0.48333333333333334       -7.3711360125915418E-007   2.2946175465379714E-004  -4.1733346709295696E-003   16.610758179417164        1.6783867438224798E-010
   8.3333333333333329E-002  0.51666666666666661        3.2739576457892724E-006   1.4506021940277595E-004  -4.2237293250840680E-003   17.305526320498114       -3.1193161660440782E-010
   8.3333333333333329E-002  0.54999999999999993        1.0818024258686481E-005   5.4937830198621213E-005  -4.2185879960121436E-003   17.977954950215487       -8.1114845851444628E-010
   8.3333333333333329E-002  0.58333333333333326        2.1607740340382368E-005  -4.0458067524788710E-005  -4.1567351000988857E-003   18.625186939254419       -1.3231380826053685E-009
   8.3333333333333329E-002  0.61666666666666659        3.5260867218426063E-005  -1.4073657189064492E-004  -4.0374194060315595E-003   19.243375623287459       -1.8402789968979816E-009
   8.3333333333333329E-002  0.64999999999999991        5.1291701776453939E-005  -2.4544016267096121E-004  -3.8603600204723922E-003   19.827411948238044       -2.3541621109110511E-009
   8.3333333333333329E-002  0.68333333333333324        6.9100220447329850E-005  -3.5391965777600072E-004  -3.6258999942273603E-003   20.370635034283179       -2.8558085132801558E-009
   8.3333333333333329E-002  0.71666666666666656        8.7960375533520504E-005  -4.6521220112012143E-004  -3.3352699080586986E-003   20.864504577983805       -3.3359356006734675E-009
   8.3333333333333329E-002  0.75000000000000000        1.0700955599662384E-004  -5.7788068347851057E-004  -2.9909739150267168E-003   21.298196842640031       -3.7852552810940798E-009
   8.3333333333333329E-002  0.78333333333333333        1.2524147164808482E-004  -6.8968269917639728E-004  -2.5973468045312528E-003   21.658091673693438       -4.1947885442983335E-009
   8.3333333333333329E-002  0.81666666666666665        1.4150539766433882E-004  -7.9676798649658059E-004  -2.1614088650029908E-003   21.927203929340511       -4.5561785004533117E-009
   8.3333333333333329E-002  0.84999999999999998        1.5451814052690085E-004  -8.9178722524110680E-004  -1.6942901422798830E-003   22.084930909644029       -4.8619865373328297E-009
   8.3333333333333329E-002  0.88333333333333330        1.6290664041987809E-004  -9.5969303891492810E-004  -1.2137351698204633E-003   22.108428494575865       -5.1059557103216857E-009
   8.3333333333333329E-002  0.91666666666666663        1.6532854992200443E-004  -9.6882480171779574E-004  -7.4853713885792610E-004   21.979475728601265       -5.2832291944082677E-009
   8.3333333333333329E-002  0.94999999999999996        1.6077415644263581E-004  -8.5241476311236227E-004  -3.4607544661847587E-004   21.707211373598152       -5.3905135997261988E-009
   8.3333333333333329E-002  0.98333333333333317        1.4920145098581953E-004  -4.7039154576464470E-004  -8.3953501890548246E-005   21.392675762691681       -5.4261796965382469E-009
  0.11666666666666665        1.6666666666666663E-002   3.0057555200619767E-004   3.3038387202720236E-004  -6.9332057155649144E-005   8.6548973113530678        5.1795797676931765E-009
  0.11666666666666665        5.0000000000000003E-002   2.6131490253455351E-004   7.2362602954592192E-004  -2.8797855822779405E-004   8.7766186507557595        3.3904058362871359E-009
  0.11666666666666665        8.3333333333333329E-002   2.2467417557253750E-004   9.2927566990166563E-004  -6.2959210322972436E-004   9.0868111670297509        3.3237325062357437E-009
  0.11666666666666665       0.11666666666666665        1.9010033571276056E-004   1.0192172875688782E-003  -1.0338272615894237E-003   9.6050170987177808        3.2337103827995151E-009
  0.11666666666666665       0.15000000000000002        1.5748776575593741E-004   1.0454424273460333E-003  -1.4627907581052993E-003   10.311804254792005        3.1179411170978444E-009
  0.11666666666666665       0.18333333333333335        1.2699994407183788E-004   1.0383748525286691E-003  -1.8927873632633054E-003   11.163349429281896        2.9738811899160389E-009
  0.11666666666666665       0.21666666666666667        9.8919456316639198E-005   1.0118327084915452E-003  -2.3084662205893705E-003   12.108534499985469        2.7990440694403151E-009
  0.11666666666666665       0.25000000000000000        7.3562423864372174E-005   9.6995167542001401E-004  -2.6988722769329923E-003   13.102348740260783        2.5912050699572475E-009
  0.11666666666666665       0.28333333333333333        5.1239679682812625E-005   9.1287244123166938E-004  -3.0552615052177904E-003   14.112163799777193        2.3485965377351148E-009
  0.11666666666666665       0.31666666666666665        3.2238517204536508E-005   8.4010796441670891E-004  -3.3702572643902664E-003   15.117716911690307        2.0700804369278014E-009
  0.11666666666666665       0.35000000000000003        1.6808067626642078E-005   7.5192683191344426E-004  -3.6377503432750988E-003   16.107889839300505        1.7552874258253137E-009
  0.11666666666666665       0.38333333333333336        5.1432898944774915E-006   6.4954574943670959E-004  -3.8530335970700992E-003   17.077065936248687        1.4047149936302628E-009
  0.11666666666666665       0.41666666666666669       -2.6302117054603419E-006   5.3480270221248024E-004  -4.0128745583909468E-003   18.022420314700891        1.0197860464064568E-009
  0.11666666666666665       0.45000000000000001       -6.4669423885112148E-006   4.0971646991779366E-004  -4.1154250296246871E-003   18.942306528450374        6.0287921486643081E-010
  0.11666666666666665       0.48333333333333334       -6.4063437710274748E-006   2.7613194919643997E-004  -4.1599901732538736E-003   19.835387071901561        1.5735096981894098E-010
  0.11666666666666665       0.51666666666666661       -2.5729537530953569E-006   1.3552863049290311E-004  -4.1467341297184348E-003   20.700124562858573       -3.1243537553134193E-010
  0.11666666666666665       0.54999999999999993        4.8251190579524603E-006  -1.0999024920134652E-005  -4.0764070520383708E-003   21.534395638743209       -8.0108301979756047E-010
  0.11666666666666665       0.58333333333333326        1.5496221080813943E-005  -1.6261947378765087E-004  -3.9501617571956749E-003   22.335126164166876       -1.3021702908663779E-009
  0.11666666666666665       0.61666666666666659        2.9061546401660410E-005  -3.1854954178577586E-004  -3.7695031796702054E-003   23.097921766077405       -1.8083244337704918E-009
  0.11666666666666665       0.64999999999999991        4.5047540695923308E-005  -4.7779955760956990E-004  -3.5363903389645408E-003   23.816691863592254       -2.3113689642806357E-009
  0.11666666666666665       0.68333333333333324        6.2875931297675842E-005  -6.3891753291631451E-004  -3.2534932671952777E-003   24.483260572206962       -2.8025380714030712E-009
  0.11666666666666665       0.71666666666666656        8.1854720416112703E-005  -7.9974025770267545E-004  -2.9245976260914878E-003   25.086942029988471       -3.2727427989875935E-009
  0.11666666666666665       0.75000000000000000        1.0117461972310366E-004  -9.5709862070965834E-004  -2.5551478604231778E-003   25.614047316009437       -3.7128708857414594E-009
  0.11666666666666665       0.78333333333333333        1.1991581766295387E-004  -1.1063127175718287E-003  -2.1529272787423402E-003   26.047315202185800       -4.1141019375967591E-009
  0.11666666666666665       0.81666666666666665        1.3707002937538861E-004  -1.2401084910710655E-003  -1.7288949841888415E-003   26.365395170516713       -4.4682203249879482E-009
  0.11666666666666665       0.84999999999999998        1.5158426018713531E-004  -1.3462199696343670E-003  -1.2982407688491209E-003   26.542951555117899       -4.7679096469577242E-009
  0.11666666666666665       0.88333333333333330        1.6244049284446112E-004  -1.4022846012859032E-003  -8.8177176359207179E-004   26.553172068295655       -5.0070141002084290E-009
  0.11666666666666665       0.91666666666666663        1.6880946497092633E-004  -1.3654755458304625E-003  -5.0772783102019550E-004   26.377525462749627       -5.1807547089138817E-009
  0.11666666666666665       0.94999999999999996        1.7036868311332676E-004  -1.1522737843252581E-003  -2.1368011027388161E-004   26.034735996716282       -5.2858904146108054E-009
  0.11666666666666665       0.98333333333333317        1.6793706048277989E-004  -6.0034008169102969E-004  -4.5994854919216102E-005   25.655732659330816       -5.3208175422071735E-009
  0.15000000000000002        1.6666666666666663E-002   2.9157517272983421E-004   4.6502087496203524E-004  -6.5304774943392643E-005   9.4169054020050709        5.0705676966217306E-009
  0.15000000000000002        5.0000000000000003E-002   2.5381445233402928E-004   1.0176568598834611E-003  -2.7532582453339760E-004   9.5531168086394214        3.3160600307335919E-009
  0.15000000000000002        8.3333333333333329E-002   2.1818776317687047E-004   1.3104488457307681E-003  -6.0891606435674761E-004   9.9115063202488969        3.2502832925107583E-009
  0.15000000000000002       0.11666666666666665        1.8419237611752820E-004   1.4402236115670904E-003  -1.0068601896698647E-003   10.518492215613593        3.1615437004473002E-009
  0.15000000000000002       0.15000000000000002        1.5180074676743685E-004   1.4756667873350993E-003  -1.4291271677967115E-003   11.351772554871484        3.0474781500394732E-009
  0.15000000000000002       0.18333333333333335        1.2127251535650500E-004   1.4578656716222461E-003  -1.8488455409731356E-003   12.358331430341822        2.9055923032178521E-009
  0.15000000000000002       0.21666666666666667        9.2985041235249351E-005   1.4068878593959371E-003  -2.2477124634452993E-003   13.475572753134239        2.7334668382950067E-009
  0.15000000000000002       0.25000000000000000        6.7337989970434807E-005   1.3303522967864872E-003  -2.6127620018278255E-003   14.648023846981980        2.5289670409905929E-009
  0.15000000000000002       0.28333333333333333        4.4711260455205545E-005   1.2305608999880037E-003  -2.9344616910123369E-003   15.835285170223464        2.2904412411844932E-009
  0.15000000000000002       0.31666666666666665        2.5444705787823885E-005   1.1087962583359830E-003  -3.2058425390819522E-003   17.012192944404902        2.0168928376376738E-009
  0.15000000000000002       0.35000000000000003        9.8212166678224094E-006   9.6708745016965410E-004  -3.4221982465331034E-003   18.164994918582355        1.7081092954993049E-009
  0.15000000000000002       0.38333333333333336       -1.9503903727680363E-006   8.0841160334863514E-004  -3.5809413610254394E-003   19.286963955724804        1.3647362181318234E-009
  0.15000000000000002       0.41666666666666669       -9.7487707828099912E-006   6.3621728816580883E-004  -3.6813807599443034E-003   20.375100838423048        9.8829530843780322E-010
  0.15000000000000002       0.45000000000000001       -1.3545816307915025E-005   4.5383114282241457E-004  -3.7243594943664089E-003   21.428122563469753        5.8116564945892568E-010
  0.15000000000000002       0.48333333333333334       -1.3404410995812296E-005   2.6402500622540960E-004  -3.7118020558713507E-003   22.445322718784251        1.4657192603725888E-010
  0.15000000000000002       0.51666666666666661       -9.4712470271875709E-006   6.8839651659519148E-005  -3.6462621829338538E-003   23.425865220876705       -3.1137623599311604E-010
  0.15000000000000002       0.54999999999999993       -1.9693214514422379E-006  -1.3034045637412334E-004  -3.5305588872014664E-003   24.368244802234340       -7.8760063314947670E-010
  0.15000000000000002       0.58333333333333326        8.8057772267366847E-006  -3.3251821055081682E-004  -3.3675640832746632E-003   25.269801229179862       -1.2760054115754094E-009
  0.15000000000000002       0.61666666666666659        2.2483638902287746E-005  -5.3669632138738841E-004  -3.1601772470356308E-003   26.126255214952145       -1.7695164474321179E-009
  0.15000000000000002       0.64999999999999991        3.8611322392993737E-005  -7.4144373576545144E-004  -2.9114992658075970E-003   26.931259190323313       -2.2602179329533900E-009
  0.15000000000000002       0.68333333333333324        5.6643266957248611E-005  -9.4446945025320633E-004  -2.6252004106456480E-003   27.675953682021127       -2.7395686882231152E-009
  0.15000000000000002       0.71666666666666656        7.5934098749856947E-005  -1.1422214934851908E-003  -2.3060630988554391E-003   28.348511547316733       -3.1986749707280104E-009
  0.15000000000000002       0.75000000000000000        9.5740909784924034E-005  -1.3294664655670236E-003  -1.9606640140986181E-003   28.933657123143334       -3.6285963157800527E-009
  0.15000000000000002       0.78333333333333333        1.1524165944845757E-004  -1.4986917381686249E-003  -1.5981379882625229E-003   29.412199550664038       -4.0206645634394134E-009
  0.15000000000000002       0.81666666666666665        1.3357515959739320E-004  -1.6389646737703626E-003  -1.2309353623496757E-003   29.760801996364069       -4.3667980290790220E-009
  0.15000000000000002       0.84999999999999998        1.4990688694676985E-004  -1.7335124492615633E-003  -8.7544121974162910E-004   29.952723197706053       -4.6597955771776611E-009
  0.15000000000000002       0.88333333333333330        1.6352796464396170E-004  -1.7546589503752534E-003  -5.5224371842072916E-004   29.961570183778964       -4.8935965141216897E-009
  0.15000000000000002       0.91666666666666663        1.7401154889661364E-004  -1.6537850093721780E-003  -2.8560417410920786E-004   29.773102019234305       -5.0634947320118973E-009
  0.15000000000000002       0.94999999999999996        1.8149321311669496E-004  -1.3427358889746841E-003  -1.0088067160501147E-004   29.416288128082410       -5.1662980091876642E-009
  0.15000000000000002       0.98333333333333317        1.8719603410149139E-004  -6.6238968276139168E-004  -1.6054570797087624E-005   29.035307578622898       -5.2004259506544318E-009
  0.18333333333333335        1.6666666666666663E-002   2.7951171005875537E-004   5.8568125356508799E-004  -5.5355436793876833E-005   10.115921725525071        4.9413793005298468E-009
  0.18333333333333335        5.0000000000000003E-002   2.4347455446067866E-004   1.2902831940070400E-003  -2.3862082398697575E-004   10.259625315223081        3.2286046327753559E-009
  0.18333333333333335        8.3333333333333329E-002   2.0894782260006450E-004   1.6699056996314693E-003  -5.3711355620290901E-004   10.648175646755597        3.1641518502545374E-009
  0.18333333333333335       0.11666666666666665        1.7558458427754611E-004   1.8398802953543368E-003  -8.9828275769100426E-004   11.314610520825076        3.0772252905542086E-009
  0.18333333333333335       0.15000000000000002        1.4348932938106491E-004   1.8828868051275482E-003  -1.2828922769484211E-003   12.235826159311616        2.9654787670613247E-009
  0.18333333333333335       0.18333333333333335        1.1304147573037525E-004   1.8500954621312245E-003  -1.6626235163234985E-003   13.352655497869064        2.8264463495381031E-009
  0.18333333333333335       0.21666666666666667        8.4722616490113956E-005   1.7684427258700315E-003  -2.0175410654467213E-003   14.593800467432594        2.6577556891393961E-009
  0.18333333333333335       0.25000000000000000        5.9017468417937408E-005   1.6501797364710650E-003  -2.3338736602639297E-003   15.895127553719426        2.4573466629596030E-009
  0.18333333333333335       0.28333333333333333        3.6369465966616316E-005   1.5009826425654914E-003  -2.6024229950008990E-003   17.209258136841942        2.2236801401967488E-009
  0.18333333333333335       0.31666666666666665        1.7158525352149367E-005   1.3249199406405719E-003  -2.8175874303644974E-003   18.506303699547001        1.9559175442468435E-009
  0.18333333333333335       0.35000000000000003        1.6832806181698833E-006   1.1264928566897970E-003  -2.9767606894886278E-003   19.769889103811295        1.6540473097084729E-009
  0.18333333333333335       0.38333333333333336       -9.8540961297700047E-006   9.1082875604314912E-004  -3.0798400334471777E-003   20.992304324470869        1.3189334325224011E-009
  0.18333333333333335       0.41666666666666669       -1.7355820146487930E-005   6.8308653916782666E-004  -3.1286869611542043E-003   22.170702177241875        9.5227352696000689E-010