 TITLE = "Cavity_simu"
 Variables="X","Y","P","U","V","T","div"
 Zone I=          30 , J=          30 , F = POINT
   1.6666666666666663E-002   1.6666666666666663E-002   3.0107823357791708E-004   1.8756702839930666E-005  -1.8756723265482605E-005   6.0209258508629491       -1.2255331163953109E-009
   1.6666666666666663E-002   5.0000000000000003E-002   2.5882716504987063E-004   4.7335798887756024E-005  -8.4849259802918965E-005   6.0634194709384994       -8.6305186434987302E-010
   1.6666666666666663E-002   8.3333333333333329E-002   2.1952637362674974E-004   6.0765916336115058E-005  -1.9295100282952065E-004   6.1578659164997731       -8.0511197275007218E-010
   1.6666666666666663E-002  0.11666666666666665        1.8354107077257501E-004   6.5270849242801370E-005  -3.1898779410514423E-004   6.3061855236223181       -7.3669045690116786E-010
   1.6666666666666663E-002  0.15000000000000002        1.5074916279383331E-004   6.6061470705057197E-005  -4.5032013731450258E-004   6.5023982712823143       -6.5899953029247005E-010
   1.6666666666666663E-002  0.18333333333333335        1.2102889243389116E-004   6.5736133176741413E-005  -5.8211776173514962E-004   6.7353041193004701       -5.7333137109399912E-010
   1.6666666666666663E-002  0.21666666666666667        9.4379610897761968E-005   6.5113697295440286E-005  -7.1296760978005946E-004   6.9920406831290514       -4.8103232421631281E-010
   1.6666666666666663E-002  0.25000000000000000        7.0900314195547281E-005   6.4173726994280812E-005  -8.4225504847826175E-004   7.2610158205743547       -3.8347654392201225E-010
   1.6666666666666663E-002  0.28333333333333333        5.0737175231320894E-005   6.2646135475848838E-005  -9.6907492204033698E-004   7.5334621744899133       -2.8204018807931330E-010
   1.6666666666666663E-002  0.31666666666666665        3.4039706604334272E-005   6.0283903428459272E-005  -1.0920049686132672E-003   7.8036673717208078       -1.7807714287540466E-010
   1.6666666666666663E-002  0.35000000000000003        2.0931983760826358E-005   5.6946852013825106E-005  -1.2092357282384599E-003   8.0684002720880255       -7.2897361324403276E-011
   1.6666666666666663E-002  0.38333333333333336        1.1495168654535710E-005   5.2599289631876041E-005  -1.3187818705615894E-003   8.3260917451750629        3.2251667482496860E-011
   1.6666666666666663E-002  0.41666666666666669        5.7571835042363290E-006   4.7278003903319207E-005  -1.4186591612892563E-003   8.5761204044305792        1.3620003128794744E-010
   1.6666666666666663E-002  0.45000000000000001        3.6870028369689931E-006   4.1054885686306959E-005  -1.5069920446444229E-003   8.8183195171483675        2.3786754467167159E-010
   1.6666666666666663E-002  0.48333333333333334        5.1918721426727925E-006   3.4003922941258561E-005  -1.5820508437029688E-003   9.0526772266237927        3.3627363133642563E-010
   1.6666666666666663E-002  0.51666666666666661        1.0115804462156687E-005   2.6177266525927495E-005  -1.6422320203898378E-003   9.2791565427696092        4.3054539252372626E-010
   1.6666666666666663E-002  0.54999999999999993        1.8237638248674776E-005   1.7592528426274540E-005  -1.6860017995008821E-003   9.4975728618152271        5.1992407341244773E-010
   1.6666666666666663E-002  0.58333333333333326        2.9267166305260144E-005   8.2307837190985184E-006  -1.7118250929180332E-003   9.7074940424613168        6.0376924705500545E-010
   1.6666666666666663E-002  0.61666666666666659        4.2838347659917346E-005  -1.9579942144025305E-006  -1.7180978610005734E-003   9.9081492804615472        6.8156010304650568E-010
   1.6666666666666663E-002  0.64999999999999991        5.8499119100422487E-005  -1.3047254048133032E-005  -1.7030925888304824E-003   10.098342328073846        7.5289321988230434E-010
   1.6666666666666663E-002  0.68333333333333324        7.5697482727526914E-005  -2.5129304298142747E-005  -1.6649160043113698E-003   10.276363901148164        8.1747698237391586E-010
   1.6666666666666663E-002  0.71666666666666656        9.3763059165412644E-005  -3.8316500680253805E-005  -1.6014701711229732E-003   10.439891588354435        8.7512302786307838E-010
   1.6666666666666663E-002  0.75000000000000000        1.1188202024587308E-004  -5.2743177604777673E-005  -1.5104104628236338E-003   10.585858701209423        9.2573544880139580E-010
   1.6666666666666663E-002  0.78333333333333333        1.2906144548594764E-004  -6.8546931741004559E-005  -1.3891203218939501E-003   10.710275971945103        9.6929864221856343E-010
   1.6666666666666663E-002  0.81666666666666665        1.4407757106272776E-004  -8.5774926027020943E-005  -1.2347984312065362E-003   10.808023238170863        1.0058646441810093E-009
   1.6666666666666663E-002  0.84999999999999998        1.5540343571066127E-004  -1.0409363306408326E-004  -1.0449298380920122E-003   10.872741759487837        1.0355405552150976E-009
   1.6666666666666663E-002  0.88333333333333330        1.6112056189231837E-004  -1.2203297603245470E-004  -8.1880319409518513E-004   10.897266121223362        1.0584767940607920E-009
   1.6666666666666663E-002  0.91666666666666663        1.5885009217362608E-004  -1.3514230067152198E-004  -5.6162788183565363E-004   10.875800093873208        1.0748564885365575E-009
   1.6666666666666663E-002  0.94999999999999996        1.4582846163927428E-004  -1.3156085675542384E-004  -2.9492468841299302E-004   10.810819417423353        1.0848864029355809E-009
   1.6666666666666663E-002  0.98333333333333317        1.1951164796329676E-004  -8.1681888641571765E-005  -8.1681906788064564E-005   10.731224809304216        1.0887895680530835E-009
   5.0000000000000003E-002   1.6666666666666663E-002   3.0221906990068680E-004   8.6676006118527907E-005  -4.9162614127735171E-005   7.0050461754830877       -8.2134411555009890E-010
   5.0000000000000003E-002   5.0000000000000003E-002   2.6104599225228110E-004   2.0008701846702031E-004  -2.0374065727472743E-004   7.0856621802860484       -4.9966492922381978E-010
   5.0000000000000003E-002   8.3333333333333329E-002   2.2284043585738038E-004   2.5612825334852727E-004  -4.4375251468221802E-004   7.2721120249482603       -4.6271617787363439E-010
   5.0000000000000003E-002  0.11666666666666665        1.8750472919130062E-004   2.7762168823753367E-004  -7.2542893981870026E-004   7.5696704903657333       -4.1977906914403285E-010
   5.0000000000000003E-002  0.15000000000000002        1.5497353925426709E-004   2.8274396644107768E-004  -1.0231299677915064E-003   7.9655281798832451       -3.7161564450660656E-010
   5.0000000000000003E-002  0.18333333333333335        1.2526438657943249E-004   2.8126118012938254E-004  -1.3235399181091227E-003   8.4354976456346460       -3.1902955451024173E-010
   5.0000000000000003E-002  0.21666666666666667        9.8475394303048811E-005   2.7678664273112456E-004  -1.6198880897232500E-003   8.9521758397393736       -2.6284946962051858E-010
   5.0000000000000003E-002  0.25000000000000000        7.4754603430246902E-005   2.6975189395898105E-004  -1.9078517856132753E-003   9.4914142236874817       -2.0391224125893004E-010
   5.0000000000000003E-002  0.28333333333333333        5.4267712259394985E-005   2.5950146531795364E-004  -2.1834654257325992E-003   10.035494329511559       -1.4304667519948744E-010
   5.0000000000000003E-002  0.31666666666666665        3.7173064924849146E-005   2.4536907987060774E-004  -2.4424758968476373E-003   10.573309057490553       -8.1058900043562421E-011
   5.0000000000000003E-002  0.35000000000000003        2.3602952488954359E-005   2.2705424967572435E-004  -2.6804377171723770E-003   11.098878723390765       -1.8719651696808004E-011
   5.0000000000000003E-002  0.38333333333333336        1.3648918357735410E-005   2.0463799439350696E-004  -2.8930376775414416E-003   11.609496880743757        4.3245518277501560E-011
   5.0000000000000003E-002  0.41666666666666669        7.3503885656003269E-006   1.7845748734926880E-004  -3.0763785697570083E-003   12.104232083610423        1.0416356752834810E-010
   5.0000000000000003E-002  0.45000000000000001        4.6869129531712191E-006   1.4895172162955508E-004  -3.2271219950968672E-003   12.582960075360983        1.6341919397561133E-010
   5.0000000000000003E-002  0.48333333333333334        5.5738870685050080E-006   1.1652984435707082E-004  -3.3424859374303895E-003   13.045806917297140        2.2045918866495096E-010
   5.0000000000000003E-002  0.51666666666666661        9.8606298078762347E-006   8.1485024182126648E-005  -3.4201384187809531E-003   13.492821232529423        2.7479648591344219E-010
   5.0000000000000003E-002  0.54999999999999993        1.7328982745122843E-005   4.3960057340186357E-005  -3.4580439003853492E-003   13.923743609533453        3.2601429791456055E-010
   5.0000000000000003E-002  0.58333333333333326        2.7690530601565636E-005   3.9580698035256383E-006  -3.4543153915752578E-003   14.337808695449137        3.7376915364845109E-010
   5.0000000000000003E-002  0.61666666666666659        4.0581018762577920E-005  -3.8617834470990279E-005  -3.4071100347057158E-003   14.733559660194526        4.1779195554536575E-010
   5.0000000000000003E-002  0.64999999999999991        5.5551232981816820E-005  -8.3916482427099382E-005  -3.3145861997380564E-003   15.108670345148175        4.5788648523822917E-010
   5.0000000000000003E-002  0.68333333333333324        7.2054134876762602E-005  -1.3209970486239859E-004  -3.1749231132775814E-003   15.459765411458433        4.9392523144425882E-010
   5.0000000000000003E-002  0.71666666666666656        8.9428119579434962E-005  -1.8331691550729147E-004  -2.9863980858685444E-003   15.782212490077942        5.2584318583487333E-010
   5.0000000000000003E-002  0.75000000000000000        1.0687577479457714E-004  -2.3766787367454818E-004  -2.7475326352655463E-003   16.069842402675071        5.5363008448494622E-010
   5.0000000000000003E-002  0.78333333333333333        1.2343675693904938E-004  -2.9507049804083625E-004  -2.4573744633925249E-003   16.314550554427143        5.7732201658167170E-010
   5.0000000000000003E-002  0.81666666666666665        1.3795345858340406E-004  -3.5484168123835316E-004  -2.1161059800774741E-003   16.505783815219370        5.9699271914848140E-010
   5.0000000000000003E-002  0.84999999999999998        1.4903184185324558E-004  -4.1459081868668989E-004  -1.7264105781723408E-003   16.630120890177214        6.1274520700427271E-010
   5.0000000000000003E-002  0.88333333333333330        1.5501339240940512E-004  -4.6760582793101406E-004  -1.2964671291235581E-003   16.671759267732963        6.2470406278491986E-010
   5.0000000000000003E-002  0.91666666666666663        1.5400912674287787E-004  -4.9699851457871754E-004  -8.4621331905990237E-004   16.616369262399896        6.3300859519388464E-010
   5.0000000000000003E-002  0.94999999999999996        1.4411360079269529E-004  -4.6278223914569220E-004  -4.1983885900912415E-004   16.465110353056414        6.3780701727023104E-010
   5.0000000000000003E-002  0.98333333333333317        1.2396073624668257E-004  -2.7345292800102692E-004  -1.1008916137208136E-004   16.276459583890816        6.3925187799435124E-010
   8.3333333333333329E-002   1.6666666666666663E-002   3.0030911841970450E-004   2.0075713877550853E-004  -6.4918543724981845E-005   7.9296055874834250       -6.9040006827822409E-010
   8.3333333333333329E-002   5.0000000000000003E-002   2.6012559247817779E-004   4.4278783769347572E-004  -2.6712249282792095E-004   8.0419066521047533       -4.1058060597232160E-010
   8.3333333333333329E-002   8.3333333333333329E-002   2.2290232817764963E-004   5.6603789341011903E-004  -5.7972112388160783E-004   8.3120814873409667       -3.7742610425883782E-010
   8.3333333333333329E-002  0.11666666666666665        1.8821733506453129E-004   6.1706776119597583E-004  -9.4740043842033686E-004   8.7502936188348190       -3.3938929097643289E-010
   8.3333333333333329E-002  0.15000000000000002        1.5597043639615268E-004   6.3044086790457754E-004  -1.3368424086685625E-003   9.3369556748539839       -2.9716138404134451E-010
   8.3333333333333329E-002  0.18333333333333335        1.2625470937591699E-004   6.2564696322824011E-004  -1.7285151635678159E-003   10.034206257566604       -2.5146414464605193E-010
   8.3333333333333329E-002  0.21666666666666667        9.9256093182344368E-005   6.1082964278871962E-004  -2.1105957923830913E-003   10.799339902408857       -2.0303383106712314E-010
   8.3333333333333329E-002  0.25000000000000000        7.5191520795522788E-005   5.8788708731013280E-004  -2.4748103036084917E-003   11.595253020853397       -1.5260518196336115E-010
   8.3333333333333329E-002  0.28333333333333333        5.4276319556033172E-005   5.5638860250637931E-004  -2.8142190040364137E-003   12.395313121897479       -1.0089603631746602E-010
   8.3333333333333329E-002  0.31666666666666665        3.6706106876380695E-005   5.1574152182986893E-004  -3.1224681182956547E-003   13.183312631727979       -4.8593925758289025E-011
   8.3333333333333329E-002  0.35000000000000003        2.2642544253174996E-005   4.6600096367418635E-004  -3.3938254563406029E-003   13.950868028181404        3.6546191420350205E-012
   8.3333333333333329E-002  0.38333333333333336        1.2199473621279436E-005   4.0791428600091891E-004  -3.6234485001868846E-003   14.694426751441123        5.5251176030168825E-011
   8.3333333333333329E-002  0.41666666666666669        5.4308573088303901E-006   3.4264865374325937E-004  -3.8075750608342340E-003   15.412981850069206        1.0564888807546025E-010
   8.3333333333333329E-002  0.45000000000000001        2.3229289477364976E-006   2.7145949778150649E-004  -3.9435305692472255E-003   16.106666694740728        1.5435383266676483E-010
   8.3333333333333329E-002  0.48333333333333334        2.7913436284712274E-006   1.9542591014830253E-004  -4.0295704565375817E-003   16.775970808128324        2.0092610431357572E-010
   8.3333333333333329E-002  0.51666666666666661        6.6819675546380517E-006   1.1530301355548625E-004  -4.0646320146655365E-003   17.421271608464007        2.4498254379973217E-010
   8.3333333333333329E-002  0.54999999999999993        1.3772633469083893E-005   3.1495780600871996E-005  -4.0480802268285992E-003   18.042485659475322        2.8620189486579239E-010
   8.3333333333333329E-002  0.58333333333333326        2.3773086799602317E-005  -5.5870127554133534E-005  -3.9795162397031417E-003   18.638754950998031        3.2432919370994906E-010
   8.3333333333333329E-002  0.61666666666666659        3.6321196415396731E-005  -1.4682062356377587E-004  -3.8586905855377608E-003   19.208147299546063        3.5917837020588150E-010
   8.3333333333333329E-002  0.64999999999999991        5.0974799606918496E-005  -2.4139125510143930E-004  -3.6855368316468301E-003   19.747367943296528        3.9063103706576952E-010
   8.3333333333333329E-002  0.68333333333333324        6.7199800876711836E-005  -3.3950226437494879E-004  -3.4603225565691688E-003   20.251468720657499        4.1863202314418313E-010
   8.3333333333333329E-002  0.71666666666666656        8.4355981232510786E-005  -4.4085274228570115E-004  -3.1839091663275303E-003   20.713516676798445        4.4318250978780949E-010
   8.3333333333333329E-002  0.75000000000000000        1.0168222430137133E-004  -5.4478030143285451E-004  -2.8581263292773566E-003   21.124159041179659        4.6433154890501704E-010
   8.3333333333333329E-002  0.78333333333333333        1.1828269342840133E-004  -6.4993223681566938E-004  -2.4863102999930610E-003   21.471019950668410        4.8216701985237531E-010
   8.3333333333333329E-002  0.81666666666666665        1.3311581554755221E-004  -7.5341479812913342E-004  -2.0741438917543605E-003   21.737945750572351        4.9680651433015033E-010
   8.3333333333333329E-002  0.84999999999999998        1.4499134549639302E-004  -8.4876422680014681E-004  -1.6310927317397033E-003   21.904435228857842        5.0838875990943944E-010
   8.3333333333333329E-002  0.88333333333333330        1.5259327066299074E-004  -9.2148548158784186E-004  -1.1729830813031368E-003   21.946543156525514        5.1706583979738152E-010
   8.3333333333333329E-002  0.91666666666666663        1.5457872223248144E-004  -9.3974681044175406E-004  -7.2660890355068079E-004   21.843116137938051        5.2299634241415038E-010
   8.3333333333333329E-002  0.94999999999999996        1.4986547684944066E-004  -8.3545092416724583E-004  -3.3756634404767536E-004   21.597787655225506        5.2633965241799530E-010
   8.3333333333333329E-002  0.98333333333333317        1.3827776132290144E-004  -4.6582115787570551E-004  -8.2279087944319351E-005   21.302822458062394        5.2725144736309737E-010
  0.11666666666666665        1.6666666666666663E-002   2.9464545010971340E-004   3.3417915754434810E-004  -6.8503495179184052E-005   8.7856928268756214       -5.1771951049134346E-010
  0.11666666666666665        5.0000000000000003E-002   2.5575855570034791E-004   7.2752794212261728E-004  -2.8446170116440379E-004   8.9224534074084900       -2.9471047477414025E-010
  0.11666666666666665        8.3333333333333329E-002   2.1953745727959915E-004   9.3117058122470795E-004  -6.2173588484111606E-004   9.2626911410163988       -2.6648293988129623E-010
  0.11666666666666665       0.11666666666666665        1.8546929214555962E-004   1.0183808978586988E-003  -1.0205024150814041E-003   9.8224437490144254       -2.3480398007869052E-010
  0.11666666666666665       0.15000000000000002        1.5347383756407373E-004   1.0409131931556990E-003  -1.4428459246075102E-003   10.576509574115976       -2.0027458511040486E-010
  0.11666666666666665       0.18333333333333335        1.2372217788678087E-004   1.0286801076411156E-003  -1.8646786545791234E-003   11.474453366434375       -1.6351207367260034E-010
  0.11666666666666665       0.21666666666666667        9.6489148967007868E-005   9.9532760648704597E-004  -2.2701291462607961E-003   12.459106922631095       -1.2513472376352031E-010
  0.11666666666666665       0.25000000000000000        7.2071283865014375E-005   9.4530164015283759E-004  -2.6478271610184288E-003   13.480927549190996       -8.5746354461235796E-011
  0.11666666666666665       0.28333333333333333        5.0749923877182763E-005   8.7945176417576754E-004  -2.9888961815220877E-003   14.504600757146164       -4.5921723021424832E-011
  0.11666666666666665       0.31666666666666665        3.2772962850673524E-005   7.9823818439173284E-004  -3.2862068948541967E-003   15.508860582631941       -6.1941927281816689E-012
  0.11666666666666665       0.35000000000000003        1.8339685728844569E-005   7.0294308805366541E-004  -3.5342883440536051E-003   16.482888104513147        3.2952680514841681E-011
  0.11666666666666665       0.38333333333333336        7.5855832032001869E-006   5.9570358780392538E-004  -3.7293967236740268E-003   17.422286385842664        7.1088467577806735E-011
  0.11666666666666665       0.41666666666666669        5.7052955333249276E-007   4.7905637043381112E-004  -3.8694671758565343E-003   18.326075313047617        1.0783354374363507E-010
  0.11666666666666665       0.45000000000000001       -2.7261552309305320E-006   3.5541792439609387E-004  -3.9538778022371835E-003   19.194866068126487        1.4285363105111248E-010
  0.11666666666666665       0.48333333333333334       -2.4033607607738744E-006   2.2670868562155147E-004  -3.9830791058015208E-003   20.029829592459045        1.7585504504414456E-010
  0.11666666666666665       0.51666666666666661        1.3686857104932438E-006   9.4192274373089361E-005  -3.9581895701585861E-003   20.832052427650929        2.0658614879529025E-010
  0.11666666666666665       0.54999999999999993        8.3555718269923941E-006  -4.1480053472491642E-005  -3.8806547685295047E-003   21.602036124427492        2.3484494297149050E-010
  0.11666666666666665       0.58333333333333326        1.8262268118490930E-005  -1.8007369132431411E-004  -3.7520393393803506E-003   22.339243238444183        2.6048800963462959E-010
  0.11666666666666665       0.61666666666666659        3.0730920362204165E-005  -3.2149478351185172E-004  -3.5739872493702955E-003   23.041669101218996        2.8343521280005390E-010
  0.11666666666666665       0.64999999999999991        4.5332875141644826E-005  -4.6550125460333505E-004  -3.3483568215293574E-003   23.705437258533539        3.0366919916147150E-010
  0.11666666666666665       0.68333333333333324        6.1557029351224203E-005  -6.1144578410815326E-004  -3.0775175534692137E-003   24.324403510690317        3.2123003389228355E-010
  0.11666666666666665       0.71666666666666656        7.8798108958993764E-005  -7.5805353838027500E-004  -2.7647866025622189E-003   24.889728713589641        3.3620675340961803E-010
  0.11666666666666665       0.75000000000000000        9.6349153561170014E-005  -9.0316503020435447E-004  -2.4149838882055125E-003   25.389361034513573        3.4872756765613744E-010
  0.11666666666666665       0.78333333333333333        1.1340227058233895E-004  -1.0432497331267325E-003  -2.0350976648376472E-003   25.807384424771868        3.5894970502881041E-010
  0.11666666666666665       0.81666666666666665        1.2906119263201191E-004  -1.1722792855353471E-003  -1.6350820609428564E-003   26.123318322038195        3.6704962333433677E-010
  0.11666666666666665       0.84999999999999998        1.4237049059264345E-004  -1.2791724899475156E-003  -1.2288604413129489E-003   26.311889592082732        3.7321403259515940E-010
  0.11666666666666665       0.88333333333333330        1.5237511675109380E-004  -1.3423724723627462E-003  -8.3567480822223177E-004   26.345014036228228        3.7763200379237194E-010
  0.11666666666666665       0.91666666666666663        1.5825143615348921E-004  -1.3189910582862611E-003  -4.8191771738557130E-004   26.200794369044374        3.8048811497326529E-010
  0.11666666666666665       0.94999999999999996        1.5960998579470515E-004  -1.1240214659130636E-003  -2.0314545710190183E-004   25.891480220625418        3.8195689579939573E-010
  0.11666666666666665       0.98333333333333317        1.5714053661777564E-004  -5.9189176485095014E-004  -4.3791534188422427E-005   25.537212058762144        3.8219837971559256E-010
  0.15000000000000002        1.6666666666666663E-002   2.8537942778982515E-004   4.6590821850205251E-004  -6.3225579484786157E-005   9.5718968900822716       -3.0465643896526728E-010
  0.15000000000000002        5.0000000000000003E-002   2.4809290623348446E-004   1.0155679775510351E-003  -2.6703649105293086E-004   9.7254885671199567       -1.5294811250843310E-010
  0.15000000000000002        8.3333333333333329E-002   2.1294224529382384E-004   1.3048319900095771E-003  -5.9146376567067874E-004   10.118071070339276       -1.3072886176357379E-010
  0.15000000000000002       0.11666666666666665        1.7949150941793602E-004   1.4309186885658122E-003  -9.7889644723588281E-004   10.771964023233652       -1.0679478655573060E-010
  0.15000000000000002       0.15000000000000002        1.4775289463879595E-004   1.4616085846832815E-003  -1.3897861303363442E-003   11.658422142649620       -8.1638954277374332E-011
  0.15000000000000002       0.18333333333333335        1.1800134740338831E-004   1.4371593031216393E-003  -1.7971279957258268E-003   12.717078870752884       -5.5753760982990563E-011
  0.15000000000000002       0.21666666666666667        9.0611189231365119E-005   1.3774525371415818E-003  -2.1822816364128273E-003   13.878555640287580       -2.9616257363196397E-011
  0.15000000000000002       0.25000000000000000        6.5965503994344058E-005   1.2906296876889765E-003  -2.5320366039153766E-003   15.082218029110225       -3.6730913449689595E-012
  0.15000000000000002       0.28333333333333333        4.4415761368070851E-005   1.1800456165924097E-003  -2.8368894852589489E-003   16.284529616969621        2.1674146852279641E-011
  0.15000000000000002       0.31666666666666665        2.6260845557927251E-005   1.0483110196690755E-003  -3.0902454593601811E-003   17.459084825012098        4.6080399045134168E-011
  0.15000000000000002       0.35000000000000003        1.1729342109572153E-005   8.9880150569875096E-004  -3.2880952607148147E-003   18.592399419905213        6.9264268799662521E-011
  0.15000000000000002       0.38333333333333336        9.6384855949619852E-007   7.3563672803752622E-004  -3.4287784345678847E-003   19.679115953034032        9.1006284539535409E-011
  0.15000000000000002       0.41666666666666669       -5.9877046235537442E-006   5.6304306934994207E-004  -3.5126278151840001E-003   20.718376844229809        1.1113823077980867E-010
  0.15000000000000002       0.45000000000000001       -9.1703477894737258E-006   3.8468144752979285E-004  -3.5414674026640011E-003   21.711563591444452        1.2952538618483250E-010
  0.15000000000000002       0.48333333333333334       -8.7112690951666225E-006   2.0322047042792092E-004  -3.5180413971349820E-003   22.660957761726845        1.4605097556699698E-010
  0.15000000000000002       0.51666666666666661       -4.8048830637303266E-006   2.0233908930932606E-005  -3.4454843406570039E-003   23.568862431338836        1.6061530751232400E-010
  0.15000000000000002       0.54999999999999993        2.3002158824720665E-006  -1.6361356991506719E-004  -3.3269272474813812E-003   24.436912397342894        1.7315190774247480E-010
  0.15000000000000002       0.58333333333333326        1.2307762980258694E-005  -3.4818284722265384E-004  -3.1652999900874468E-003   25.265465400227800        1.8364555622735201E-010
  0.15000000000000002       0.61666666666666659        2.4871888183743532E-005  -5.3338299595350391E-004  -2.9633546964290031E-003   26.053048429249163        1.9214163940461937E-010
  0.15000000000000002       0.64999999999999991        3.9587921767437659E-005  -7.1869118874991157E-004  -2.7239069613818529E-003   26.795853222102220        1.9874552871501638E-010
  0.15000000000000002       0.68333333333333324        5.5979830414769447E-005  -9.0272996939986410E-004  -2.4502720928827183E-003   27.487265178645345        2.0361469975360702E-010
  0.15000000000000002       0.71666666666666656        7.3490028114081785E-005  -1.0829135563881123E-003  -2.1468588226901822E-003   28.117393573512071        2.0694748345539971E-010
  0.15000000000000002       0.75000000000000000        9.1477977985258984E-005  -1.2550985082153616E-003  -1.8198680226804978E-003   28.672567776512754        2.0897098461369890E-010
  0.15000000000000002       0.78333333333333333        1.0923325911299562E-004  -1.4130450970549901E-003  -1.4780253853328108E-003   29.134807484706396        2.0992899432692447E-010
  0.15000000000000002       0.81666666666666665        1.2600683931119090E-004  -1.5472712351746122E-003  -1.1332536565600813E-003   29.481447103822678        2.1007154349383939E-010
  0.15000000000000002       0.84999999999999998        1.4106291983671384E-004  -1.6424964126575577E-003  -8.0115938450767425E-004   29.685597876399541        2.0964522479127723E-010
  0.15000000000000002       0.88333333333333330        1.5375817492877116E-004  -1.6722469679761767E-003  -5.0114657978530955E-004   29.719420985142531        2.0888527713092131E-010
  0.15000000000000002       0.91666666666666663        1.6367622908749368E-004  -1.5882640856515291E-003  -2.5575612805970238E-004   29.565163905957295        2.0800876472659713E-010
  0.15000000000000002       0.94999999999999996        1.7089496021385783E-004  -1.3012343713230275E-003  -8.8042435940424867E-005   29.245038289379703        2.0720914177194127E-010
  0.15000000000000002       0.98333333333333317        1.7652507014095093E-004  -6.4887924394324147E-004  -1.3195954718042074E-005   28.891540465900839        2.0665201071624201E-010
  0.18333333333333335        1.6666666666666663E-002   2.7317496216480556E-004   5.8132625764783954E-004  -5.2192465618623862E-005   10.290394631975634       -5.2800934631502816E-011
  0.18333333333333335        5.0000000000000003E-002   2.3770762168481808E-004   1.2778435601456914E-003  -2.2607518407004269E-004   10.453310472948491        1.3658282838058255E-011
  0.18333333333333335        8.3333333333333329E-002   2.0372101568115109E-004   1.6518270783958927E-003  -5.1091858445276913E-004   10.878707087519070        2.8848557223626337E-011
  0.18333333333333335       0.11666666666666665        1.7095567057904350E-004   1.8173128384457449E-003  -8.5687514390284060E-004   11.595051280899710        4.3733457827377364E-011
  0.18333333333333335       0.15000000000000002        1.3956668450493728E-004   1.8550602433142704E-003  -1.2258312707592459E-003   12.572595728463687        5.7943566611484698E-011
  0.18333333333333335       0.18333333333333335        1.0995428464496883E-004   1.8149413906140637E-003  -1.5897231516318433E-003   13.744654563702525        7.1129156384297509E-011
  0.18333333333333335       0.21666666666666667        8.2599980375641915E-005   1.7236331783025249E-003  -1.9285322384526510E-003   15.032873050091650        8.2974422471737697E-011
  0.18333333333333335       0.25000000000000000        5.7972978683549377E-005   1.5940829130487119E-003  -2.2284111350891500E-003   16.367569560434394        9.3212736140824148E-011
  0.18333333333333335       0.28333333333333333        3.6487078392262487E-005   1.4333116936835644E-003  -2.4802775526488706E-003   17.697813047846228        1.0164200210660557E-010
  0.18333333333333335       0.31666666666666665        1.8477405129411917E-005   1.2470205392569301E-003  -2.6788971706010753E-003   18.992128398721004        1.0813779559304404E-010
  0.18333333333333335       0.35000000000000003        4.1822181144604664E-006   1.0412945204469632E-003  -2.8222498979801288E-003   20.234202629872168        1.1266029125225896E-010
  0.18333333333333335       0.38333333333333336       -6.2696956265146779E-006   8.2252479406391948E-004  -2.9109477984320042E-003   21.417654107673471        1.1524874804491603E-010
  0.18333333333333335       0.41666666666666669       -1.2860646219135758E-005   5.9663713963580369E-004  -2.9475805469049519E-003   22.541895104199387        1.1599825592255308E-010