 TITLE = "Cavity_simu"
 Variables="X","Y","P","U","V","T","div"
 Zone I=          30 , J=          30 , F = POINT
   1.6666666666666663E-002   1.6666666666666663E-002   3.7282142718256120E-004   1.3535062325659348E-005  -1.3534876054908356E-005   5.8697211963480971        1.1176245059518579E-008
   1.6666666666666663E-002   5.0000000000000003E-002   3.2979372723381515E-004   4.0240533175315782E-005  -6.7310148268445242E-005   5.8958237441601611        8.2210012352333661E-009
   1.6666666666666663E-002   8.3333333333333329E-002   2.8871221641253860E-004   5.4716372109797791E-005  -1.6226678301700046E-004   5.9571353100748947        8.0111922664237445E-009
   1.6666666666666663E-002  0.11666666666666665        2.5005714060815249E-004   6.0847757480843134E-005  -2.7783065011763601E-004   6.0580175367815032        7.7382080552329535E-009
   1.6666666666666663E-002  0.15000000000000002        2.1376313387109561E-004   6.3513478227437224E-005  -4.0219163342805533E-004   6.1968239380423311        7.4056636075250926E-009
   1.6666666666666663E-002  0.18333333333333335        1.7974503920575131E-004   6.5545024478271945E-005  -5.3124989574174371E-004   6.3676188134493872        7.0178576387636138E-009
   1.6666666666666663E-002  0.21666666666666667        1.4807524105516070E-004   6.7906312558232195E-005  -6.6470100615192843E-004   6.5628788926638544        6.5797215280383181E-009
   1.6666666666666663E-002  0.25000000000000000        1.1898871413782305E-004   7.0503984781315250E-005  -8.0311109221687413E-004   6.7757489263199089        6.0967545768841891E-009
   1.6666666666666663E-002  0.28333333333333333        9.2832017220366187E-005   7.2838818091731385E-005  -9.4645370056162942E-004   7.0011339016533976        5.5749429005505502E-009
   1.6666666666666663E-002  0.31666666666666665        7.0009472723775408E-005   7.4352707295179777E-005  -1.0936450493551509E-003   7.2356940620691912        5.0206604837108038E-009
   1.6666666666666663E-002  0.35000000000000003        5.0939995502805503E-005   7.4555253829605995E-005  -1.2425528527930389E-003   7.4772422956890319        4.4405533798641539E-009
   1.6666666666666663E-002  0.38333333333333336        3.6021606488501652E-005   7.3047626623284830E-005  -1.3901555952131792E-003   7.7240441564027389        3.8414116462423542E-009
   1.6666666666666663E-002  0.41666666666666669        2.5598513261772274E-005   6.9517739412944561E-005  -1.5327208433919010E-003   7.9742978141710763        3.2300388206132902E-009
   1.6666666666666663E-002  0.45000000000000001        1.9928321414471657E-005   6.3734769527672565E-005  -1.6659732549463386E-003   8.2258513515560185        2.6131319504074657E-009
   1.6666666666666663E-002  0.48333333333333334        1.9149351561746256E-005   5.5548136977961848E-005  -1.7852560846133379E-003   8.4760978058136445        1.9971861538702063E-009
   1.6666666666666663E-002  0.51666666666666661        2.3249090692392304E-005   4.4890805349655744E-005  -1.8856949705139780E-003   8.7219646297926055        1.3884324978792606E-009
   1.6666666666666663E-002  0.54999999999999993        3.2035120340778101E-005   3.1787603768608113E-005  -1.9623733432782235E-003   8.9599368409692577        7.9280860240497908E-010
   1.6666666666666663E-002  0.58333333333333326        4.5110147939298168E-005   1.6369650792355321E-005  -2.0105305810265064E-003   9.1860852255846535        2.1595222810498471E-010
   1.6666666666666663E-002  0.61666666666666659        6.1853333262988067E-005  -1.1058350558206786E-006  -2.0257943987771051E-003   9.3960965386445139       -3.3679608703166865E-010
   1.6666666666666663E-002  0.64999999999999991        8.1410871362620372E-005  -2.0234582562635732E-005  -2.0044540011118048E-003   9.5853190029834394       -8.6039326488082657E-010
   1.6666666666666663E-002  0.68333333333333324        1.0269937791661192E-004  -4.0451412620434554E-005  -1.9437680427703552E-003   9.7488454291665327       -1.3501039704613693E-009
   1.6666666666666663E-002  0.71666666666666656        1.2442539917207772E-004  -6.1034217596050436E-005  -1.8422824650809837E-003   9.8816600462888413       -1.8015228458317933E-009
   1.6666666666666663E-002  0.75000000000000000        1.4512262868949467E-004  -8.1134504716532646E-005  -1.7001138096372288E-003   9.9788755957572253       -2.2106068546870472E-009
   1.6666666666666663E-002  0.78333333333333333        1.6320467192138400E-004  -9.9832038732949494E-005  -1.5191473459264331E-003   10.036088510063266       -2.5737143154527797E-009
   1.6666666666666663E-002  0.81666666666666665        1.7702572075943516E-004  -1.1618279398722652E-004  -1.3031326042289371E-003   10.049893780910020       -2.8876464839081017E-009
   1.6666666666666663E-002  0.84999999999999998        1.8493611447200234E-004  -1.2916770965429599E-004  -1.0577822012096576E-003   10.018657996779849       -3.1496881066836457E-009
   1.6666666666666663E-002  0.88333333333333330        1.8531936132136790E-004  -1.3731470145059035E-004  -7.9129989856030426E-004   9.9438212753929598       -3.3576438695365196E-009
   1.6666666666666663E-002  0.91666666666666663        1.7661377740918325E-004  -1.3745625316519803E-004  -5.1652905840305816E-004   9.8324411734848756       -3.5098686700096859E-009
   1.6666666666666663E-002  0.94999999999999996        1.5738833685788293E-004  -1.2139110988728229E-004  -2.5768181393655818E-004   9.7026737784247814       -3.6052901497551915E-009
   1.6666666666666663E-002  0.98333333333333317        1.2675635083645264E-004  -6.8145442792431999E-005  -6.8145382068722518E-005   9.5955021359073438       -3.6434225688525279E-009
   5.0000000000000003E-002   1.6666666666666663E-002   3.7438038826513142E-004   7.0183532307257330E-005  -4.3113269874889585E-005   6.7101503086156500        8.2668629433277352E-009
   5.0000000000000003E-002   5.0000000000000003E-002   3.3221650095948486E-004   1.7913996780702260E-004  -1.8488535148937187E-004   6.7592921620832378        5.3830078996716657E-009
   5.0000000000000003E-002   8.3333333333333329E-002   2.9220709938480930E-004   2.4006069145980028E-004  -4.1417202316128499E-004   6.8813774649438519        5.2384730581112038E-009
   5.0000000000000003E-002  0.11666666666666665        2.5429645808183494E-004   2.6866636264648384E-004  -6.9177064656412003E-004   7.0866525917154481        5.0528569765784237E-009
   5.0000000000000003E-002  0.15000000000000002        2.1841249738057051E-004   2.8220675294576001E-004  -9.9392112604870168E-004   7.3712045306090728        4.8286091184485125E-009
   5.0000000000000003E-002  0.18333333333333335        1.8458150494428245E-004   2.9116163973930169E-004  -1.3091723567017215E-003   7.7215872905023009        4.5686282881818308E-009
   5.0000000000000003E-002  0.21666666666666667        1.5296128676404081E-004   2.9944443095244018E-004  -1.6328756059061319E-003   8.1212170345632941        4.2762311174698864E-009
   5.0000000000000003E-002  0.25000000000000000        1.2382131786162540E-004   3.0696774417696588E-004  -1.9624670491674087E-003   8.5554547056171852        3.9551109401458895E-009
   5.0000000000000003E-002  0.28333333333333333        9.7507713269321048E-005   3.1197452756190623E-004  -2.2947235890869266E-003   9.0138268474760501        3.6092847165852815E-009
   5.0000000000000003E-002  0.31666666666666665        7.4410433839353982E-005   3.1240838053570225E-004  -2.6247233322055415E-003   9.4897242832373667        3.2430255703097544E-009
   5.0000000000000003E-002  0.35000000000000003        5.4934270101665731E-005   3.0648664659472743E-004  -2.9458023353563026E-003   9.9788840609985652        2.8607802550484340E-009
   5.0000000000000003E-002  0.38333333333333336        3.9469897491845373E-005   2.9285508069953046E-004  -3.2499382129471980E-003   10.477829753298382        2.4670745828181406E-009
   5.0000000000000003E-002  0.41666666666666669        2.8362638816842724E-005   2.7059281735227955E-004  -3.5282553033684060E-003   10.982829804873889        2.0664140260029384E-009
   5.0000000000000003E-002  0.45000000000000001        2.1879144337377603E-005   2.3918408596184244E-004  -3.7715271266411847E-003   11.489411539888740        1.6631924908486195E-009
   5.0000000000000003E-002  0.48333333333333334        2.0173566154412348E-005   1.9848978254396736E-004  -3.9706351333887889E-003   11.992238124179980        1.2616237204249314E-009
   5.0000000000000003E-002  0.51666666666666661        2.3255002201329766E-005   1.4872833022152530E-004  -4.1169753260435595E-003   12.485144699385422        8.6570550511186339E-010
   5.0000000000000003E-002  0.54999999999999993        3.0957775342664043E-005   9.0473678311166986E-005  -4.2028204939243878E-003   12.961204980491129        4.7921466838143911E-010
   5.0000000000000003E-002  0.58333333333333326        4.2916062778809136E-005   2.4676460794578098E-005  -4.2216561141592739E-003   13.412776977948557        1.0572126133518919E-010
   5.0000000000000003E-002  0.61666666666666659        5.8544744828025781E-005  -4.7293501473203311E-005  -4.1685114444354725E-003   13.831529323955660       -2.5139482422859016E-010
   5.0000000000000003E-002  0.64999999999999991        7.7029069282390952E-005  -1.2359718696320618E-004  -4.0403016052414824E-003   14.208479775757224       -5.8893559473638391E-010
   5.0000000000000003E-002  0.68333333333333324        9.7326526208391242E-005  -2.0189448531493122E-004  -3.8361819482098927E-003   14.534092911102793       -9.0388884398107106E-010
   5.0000000000000003E-002  0.71666666666666656        1.1818463874504606E-004  -2.7936147680872011E-004  -3.5578972814747723E-003   14.798490677073445       -1.1934447978478868E-009
   5.0000000000000003E-002  0.75000000000000000        1.3817750497214888E-004  -3.5277775525602203E-004  -3.2100955381762892E-003   14.991831158271889       -1.4550207757396683E-009
   5.0000000000000003E-002  0.78333333333333333        1.5576138007279556E-004  -4.1866447120826600E-004  -2.8005864509661606E-003   15.104914561716086       -1.6862909367476586E-009
   5.0000000000000003E-002  0.81666666666666665        1.6934569866288736E-004  -4.7335918283614880E-004  -2.3405925218872260E-003   15.130102309867858       -1.8852167431304689E-009
   5.0000000000000003E-002  0.84999999999999998        1.7737281033671160E-004  -5.1271866272043496E-004  -1.8452157492019026E-003   15.062747438316173       -2.0500761904046483E-009
   5.0000000000000003E-002  0.88333333333333330        1.7840228823918635E-004  -5.3074612423256295E-004  -1.3347158549514289E-003   14.903696427880686       -2.1794888897114228E-009
   5.0000000000000003E-002  0.91666666666666663        1.7121173158614512E-004  -5.1561448768679032E-004  -8.3789722646241153E-004   14.664440517827817       -2.2724366676579733E-009
   5.0000000000000003E-002  0.94999999999999996        1.5495803626184080E-004  -4.3981214974163363E-004  -4.0016539181753010E-004   14.379110916931841       -2.3282782455474882E-009
   5.0000000000000003E-002  0.98333333333333317        1.2943449777075880E-004  -2.3785867502504505E-004  -1.0156775032754922E-004   14.133605964128778       -2.3467579086597357E-009
   8.3333333333333329E-002   1.6666666666666663E-002   3.7384669394808270E-004   1.7741667716207566E-004  -6.4119601589337889E-005   7.5029546516339867        8.1365725069018624E-009
   8.3333333333333329E-002   5.0000000000000003E-002   3.3226760427418627E-004   4.1814194896015321E-004  -2.6858219462440910E-004   7.5713797838137884        5.2950603762758064E-009
   8.3333333333333329E-002   8.3333333333333329E-002   2.9311225073622849E-004   5.5397240307308881E-004  -5.9220886455276748E-004   7.7517551778838607        5.1534275267300922E-009
   8.3333333333333329E-002  0.11666666666666665        2.5586246298806817E-004   6.2129339329700995E-004  -9.8114864314389192E-004   8.0616383286464579        4.9714337542472453E-009
   8.3333333333333329E-002  0.15000000000000002        2.2031751026472233E-004   6.5392647460104161E-004  -1.4033445892254236E-003   8.4942986948810368        4.7514818191096708E-009
   8.3333333333333329E-002  0.18333333333333335        1.8652620626303775E-004   6.7262505624941457E-004  -1.8412761859854022E-003   9.0272728511278899        4.4964245174416995E-009
   8.3333333333333329E-002  0.21666666666666667        1.5470425470811918E-004   6.8559238576270808E-004  -2.2851840155876518E-003   9.6333988110506716        4.2095393282259863E-009
   8.3333333333333329E-002  0.25000000000000000        1.2516958348675219E-004   6.9310535546411188E-004  -2.7278778661675345E-003   10.289288579843056        3.8944939009799562E-009
   8.3333333333333329E-002  0.28333333333333333        9.8302152204934618E-005   6.9201774544768271E-004  -3.1618019051844744E-003   10.978708061110586        3.5552983092268509E-009
   8.3333333333333329E-002  0.31666666666666665        7.4519210995620887E-005   6.7858225494821873E-004  -3.5780190276333604E-003   11.691704843827283        3.1962389332451657E-009
   8.3333333333333329E-002  0.35000000000000003        5.4253575642588457E-005   6.4972059082019442E-004  -3.9663476410899921E-003   12.421924139591825        2.8217906830607653E-009
   8.3333333333333329E-002  0.38333333333333336        3.7927164738263400E-005   6.0340051801183517E-004  -4.3159909686009907E-003   13.164117040794569        2.4365071297355323E-009
   8.3333333333333329E-002  0.41666666666666669        2.5918497823408810E-005   5.3863947059034115E-004  -4.6162658184819259E-003   13.912643128743651        2.0448976279646702E-009
   8.3333333333333329E-002  0.45000000000000001        1.8526786804025600E-005   4.5538854219034924E-004  -4.8572449809121459E-003   14.660879607260666        1.6513100357593014E-009
   8.3333333333333329E-002  0.48333333333333334        1.5936121848613174E-005   3.5439312049610761E-004  -5.0302446710789924E-003   15.401140128829438        1.2598455369217110E-009
   8.3333333333333329E-002  0.51666666666666661        1.8182420490626493E-005   2.3707271444460798E-004  -5.1281521295744228E-003   16.124761448476388        8.7432656492407446E-010
   8.3333333333333329E-002  0.54999999999999993        2.5124624150006430E-005   1.0544848964018579E-004  -5.1456261119529698E-003   16.822172871539667        4.9831682562891805E-010
   8.3333333333333329E-002  0.58333333333333326        3.6420890831064365E-005  -3.7865378446997526E-005  -5.0792234434985407E-003   17.482890700177414        1.3516639153429710E-010
   8.3333333333333329E-002  0.61666666666666659        5.1510624337786135E-005  -1.8960996162529299E-004  -4.9275098175362393E-003   18.095453386098566       -2.1194652716910456E-010
   8.3333333333333329E-002  0.64999999999999991        6.9604151474769271E-005  -3.4579577839528560E-004  -4.6912046316839040E-003   18.647349564469909       -5.3999367477519655E-010
   8.3333333333333329E-002  0.68333333333333324        8.9683420742294739E-005  -5.0162855246648028E-004  -4.3733916781137985E-003   19.125009744399804       -8.4609789660627932E-010
   8.3333333333333329E-002  0.71666666666666656        1.1051860803575650E-004  -6.5149878315966551E-004  -3.9798050391961588E-003   19.513944935598484       -1.1275525270415532E-009
   8.3333333333333329E-002  0.75000000000000000        1.3070607454813667E-004  -7.8906757067320039E-004  -3.5191797466910231E-003   19.799129063556766       -1.3818522333342020E-009
   8.3333333333333329E-002  0.78333333333333333        1.4873185705423889E-004  -9.0741172105112810E-004  -3.0036518708059816E-003   19.965747425395545       -1.6067282469778288E-009
   8.3333333333333329E-002  0.81666666666666665        1.6306155246875419E-004  -9.9903287196524367E-004  -2.4492249772199593E-003   20.000502492514673       -1.8001840851322726E-009
   8.3333333333333329E-002  0.84999999999999998        1.7225349808261007E-004  -1.0552207962705549E-003  -1.8764260554928187E-003   19.893875561466366       -1.9605280385248669E-009
   8.3333333333333329E-002  0.88333333333333330        1.7509170991613005E-004  -1.0636668698101623E-003  -1.3115032085571406E-003   19.644342656334981       -2.0864009200871614E-009
   8.3333333333333329E-002  0.91666666666666663        1.7074501569356570E-004  -1.0021018668047057E-003  -7.8891385760271738E-004   19.267165384466903       -2.1767979693082529E-009
   8.3333333333333329E-002  0.94999999999999996        1.5898317838298890E-004  -8.2354558402707276E-004  -3.5642502898753324E-004   18.814457090347418       -2.2310844630113458E-009
   8.3333333333333329E-002  0.98333333333333317        1.4049141734487014E-004  -4.2428728287559293E-004  -8.4860780926952116E-005   18.422654934025800       -2.2490048824999609E-009
  0.11666666666666665        1.6666666666666663E-002   3.7005058527378063E-004   3.1752636743384566E-004  -7.5989820142266282E-005   8.2416663785297342        7.9758374427543743E-009
  0.11666666666666665        5.0000000000000003E-002   3.2923262432092026E-004   7.2404413008967544E-004  -3.1753865525698053E-004   8.3256738702582531        5.1876200748285362E-009
  0.11666666666666665        8.3333333333333329E-002   2.9085649910095982E-004   9.5244834102088335E-004  -6.9828975964552579E-004   8.5594119445946184        5.0495168012198999E-009
  0.11666666666666665       0.11666666666666665        2.5412115738930726E-004   1.0672369702415696E-003  -1.1537691618420385E-003   8.9684870255535589        4.8719049558498817E-009
  0.11666666666666665       0.15000000000000002        2.1873540804117822E-004   1.1214163606034187E-003  -1.6450063578417021E-003   9.5430491730174971        4.6571239694509492E-009
  0.11666666666666665       0.18333333333333335        1.8476606207827221E-004   1.1469745013540666E-003  -2.1489137869721751E-003   10.250788724681422        4.4079643476968577E-009
  0.11666666666666665       0.21666666666666667        1.5248482355359531E-004   1.1569458815955049E-003  -2.6507086109477029E-003   11.053084861419721        4.1276520812427719E-009
  0.11666666666666665       0.25000000000000000        1.2227232894664925E-004   1.1524777059026736E-003  -3.1387403391140009E-003   11.917124326146618        3.8198253934917936E-009
  0.11666666666666665       0.28333333333333333        9.4571188977774306E-005   1.1296607158743804E-003  -3.6018313749937346E-003   12.820441486332301        3.4884975273069552E-009
  0.11666666666666665       0.31666666666666665        6.9861612604445525E-005   1.0838784855894347E-003  -4.0285532306455710E-003   13.749386399095730        3.1379967253136742E-009
  0.11666666666666665       0.35000000000000003        4.8638113588902977E-005   1.0117792706357427E-003  -4.4075793288307161E-003   14.695259143937665        2.7728728826947879E-009
  0.11666666666666665       0.38333333333333336        3.1378365487664198E-005   9.1181331996621783E-004  -4.7284073092740408E-003   15.650964729960576        2.3977657394314011E-009
  0.11666666666666665       0.41666666666666669        1.8505441364895695E-005   7.8412734651767037E-004  -4.9820329890013157E-003   16.609157737591850        2.0172396010542659E-009
  0.11666666666666665       0.45000000000000001        1.0348853841364899E-005   6.3023956962412857E-004  -5.1613926074478376E-003   17.561597718368745        1.6356147261240017E-009
  0.11666666666666665       0.48333333333333334        7.1093131683840229E-006   4.5268579817146938E-004  -5.2615365256632081E-003   18.499101595082720        1.2568451975784184E-009
  0.11666666666666665       0.51666666666666661        8.8296510822023999E-006   2.5473222963793554E-004  -5.2795811887779613E-003   19.411634114449683        8.8449301919105161E-010
  0.11666666666666665       0.54999999999999993        1.5371941837101652E-005   4.0210556325158957E-005  -5.2145287419621232E-003   20.288318959144000        5.2179912517560934E-010
  0.11666666666666665       0.58333333333333326        2.6399573359583209E-005  -1.8650178569394523E-004  -5.0670570477367163E-003   21.117317930589167        1.7178929286043587E-010
  0.11666666666666665       0.61666666666666659        4.1363307647723869E-005  -4.2036848557379933E-004  -4.8393757436307749E-003   21.885606485697458       -1.6264180280334273E-010
  0.11666666666666665       0.64999999999999991        5.9492172464583527E-005  -6.5549401760394256E-004  -4.5352241895471818E-003   22.578708441585885       -4.7869205647976809E-010
  0.11666666666666665       0.68333333333333324        7.9792888262170006E-005  -8.8490747450405594E-004  -4.1600600258450103E-003   23.180472983418614       -7.7365368104931331E-010
  0.11666666666666665       0.71666666666666656        1.0106460948630056E-004  -1.1004119441520202E-003  -3.7214546449368321E-003   23.673002439685497       -1.0449426740555268E-009
  0.11666666666666665       0.75000000000000000        1.2193784492815370E-004  -1.2925598541427266E-003  -3.2296745737215530E-003   24.036882306287975       -1.2901405534171406E-009
  0.11666666666666665       0.78333333333333333        1.4094611474509787E-004  -1.4507332901638795E-003  -2.6983886934536724E-003   24.251942227375572       -1.5070402668848626E-009
  0.11666666666666665       0.81666666666666665        1.5663511702169951E-004  -1.5631145784405411E-003  -2.1454124215790050E-003   24.298928616533424       -1.6936889911389752E-009
  0.11666666666666665       0.84999999999999998        1.6770730320617979E-004  -1.6159436214703378E-003  -1.5934069333448479E-003   24.162808417835510       -1.8484258325346392E-009
  0.11666666666666665       0.88333333333333330        1.7319353108023183E-004  -1.5907483902682291E-003  -1.0705255657104638E-003   23.839238239351801       -1.9699124918087785E-009
  0.11666666666666665       0.91666666666666663        1.7264675639565169E-004  -1.4570049396963867E-003  -6.1113046148627843E-004   23.347692770812685       -2.0571569656069322E-009
  0.11666666666666665       0.94999999999999996        1.6637782523192408E-004  -1.1555888312146543E-003  -2.5667311293169027E-004   22.759207927374117       -2.1095300142132123E-009
  0.11666666666666665       0.98333333333333317        1.5579623113283448E-004  -5.6481483934286156E-004  -5.5666702610656205E-005   22.255912840759933       -2.1267747380912527E-009
  0.15000000000000002        1.6666666666666663E-002   3.6249054695744449E-004   4.7307366187270895E-004  -7.9557211581527632E-005   8.9267942077982987        7.7870667162735496E-009
  0.15000000000000002        5.0000000000000003E-002   3.2268800259294318E-004   1.0647062360691069E-003  -3.3421734333801475E-004   9.0223604945607736        5.0623013732320477E-009
  0.15000000000000002        8.3333333333333329E-002   2.8506831106203315E-004   1.3956604173200446E-003  -7.3734008409894445E-004   9.3013768998035165        4.9283088218027293E-009
  0.15000000000000002       0.11666666666666665        2.4870842785473926E-004   1.5611809042363144E-003  -1.2190163654379014E-003   9.7976642236192255        4.7557756049226851E-009
  0.15000000000000002       0.15000000000000002        2.1330630416416783E-004   1.6346397652716410E-003  -1.7349461942385434E-003   10.498415235434104        4.5469551422649968E-009
  0.15000000000000002       0.18333333333333335        1.7898311454935887E-004   1.6598100035799010E-003  -2.2570973733922134E-003   11.361549723767787        4.3045513299644345E-009
  0.15000000000000002       0.21666666666666667        1.4608857358341501E-004   1.6552003653244865E-003  -2.7663922541734253E-003   12.336899649266678        4.0317168093634281E-009
  0.15000000000000002       0.25000000000000000        1.1508778062454919E-004   1.6238065018310030E-003  -3.2479435438104026E-003   13.381921867869963        3.7320478478430896E-009
  0.15000000000000002       0.28333333333333333        8.6509468376123809E-005   1.5622441609951460E-003  -3.6887645081474657E-003   14.467443381757850        3.4095671008760320E-009
  0.15000000000000002       0.31666666666666665        6.0916948453864550E-005   1.4665017614637545E-003  -4.0772491550783605E-003   15.575632720935809        3.0686799455670322E-009
  0.15000000000000002       0.35000000000000003        3.8876691711197820E-005   1.3344569580546017E-003  -4.4035238252925178E-003   16.695165505942956        2.7140829757243967E-009
  0.15000000000000002       0.38333333333333336        2.0918474816065801E-005   1.1664102149836421E-003  -4.6599702566967206E-003   17.817189153161209        2.3506037810649971E-009
  0.15000000000000002       0.41666666666666669        7.4925360692530453E-006   9.6472453497582810E-004  -4.8415385146354309E-003   18.933170051576784        1.9829666589310513E-009
  0.15000000000000002       0.45000000000000001       -1.0685149639072127E-006   7.3319082471474842E-004  -4.9457272188819694E-003   20.034166795483365        1.6155220490358946E-009
  0.15000000000000002       0.48333333333333334       -4.5783857544706241E-006   4.7641935799924245E-004  -4.9722680195846379E-003   21.110744924389103        1.2520393478498287E-009
  0.15000000000000002       0.51666666666666661       -3.0161073236479791E-006   1.9940543149269801E-004  -4.9226300466680157E-003   22.152997154328190        8.9568667847178540E-010
  0.15000000000000002       0.54999999999999993        3.4617394654884430E-006  -9.2661039488663044E-005  -4.7994840520048957E-003   23.150438168561116        5.4921509007321845E-010
  0.15000000000000002       0.58333333333333326        1.4511658404445470E-005  -3.9432895206414724E-004  -4.6062569597465006E-003   24.091726891463910        2.1518312479096302E-010
  0.15000000000000002       0.61666666666666659        2.9594045020367515E-005  -6.9959699667660510E-004  -4.3468825843721651E-003   24.964246111008205       -1.0389444513037027E-010
  0.15000000000000002       0.64999999999999991        4.7964556763688691E-005  -1.0014755042525682E-003  -4.0258241598830364E-003   25.753596729263997       -4.0549430653513685E-010
  0.15000000000000002       0.68333333333333324        6.8670672299465249E-005  -1.2915021401386055E-003  -3.6484122103843837E-003   26.443086196108329       -6.8710098721780355E-010
  0.15000000000000002       0.71666666666666656        9.0562490394805674E-005  -1.5593315245330209E-003  -3.2215034028096100E-003   27.013335266759910       -9.4625858537700225E-010
  0.15000000000000002       0.75000000000000000        1.1233005800142500E-004  -1.7925091728797143E-003  -2.7544146492731597E-003   27.442213421541240       -1.1806337227304731E-009
  0.15000000000000002       0.78333333333333333        1.3257970553050136E-004  -1.9764690979645052E-003  -2.2600154924349433E-003   27.705462981493238       -1.3880764176965599E-009
  0.15000000000000002       0.81666666666666665        1.4995701135572968E-004  -2.0945975319773104E-003  -1.7557731055635295E-003   27.778629015341330       -1.5666731714020221E-009
  0.15000000000000002       0.84999999999999998        1.6331339653942968E-004  -2.1277830560929409E-003  -1.2644563193646174E-003   27.641385673022594       -1.7147901969910562E-009
  0.15000000000000002       0.88333333333333330        1.7190040137674310E-004  -2.0521009314087347E-003  -8.1414583397315882E-004   27.286296377874116       -1.8311074687776818E-009
  0.15000000000000002       0.91666666666666663        1.7557154334171213E-004  -1.8320492889518933E-003  -4.3714417734834075E-004   26.735980005853818       -1.9146435825678765E-009
  0.15000000000000002       0.94999999999999996        1.7499457456988409E-004  -1.4051051465912314E-003  -1.6704099537257107E-004   26.076371840184031       -1.9647729710553508E-009
  0.15000000000000002       0.98333333333333317        1.7193289633985528E-004  -6.5191383822606761E-004  -3.1432227805710825E-005   25.519901080885337       -1.9812356028773431E-009
  0.18333333333333335        1.6666666666666663E-002   3.5119044609560190E-004   6.2864866177941739E-004  -7.6017532322848332E-005   9.5623075432874121        7.5730732344847507E-009
  0.18333333333333335        5.0000000000000003E-002   3.1264261357508258E-004   1.4106428614087702E-003  -3.2286860342234218E-004   9.6647961335944359        4.9209821235268736E-009
  0.18333333333333335        8.3333333333333329E-002   2.7579336974832444E-004   1.8479707668501519E-003  -7.1799250914404201E-004   9.9779382544124324        4.7916361416849851E-009
  0.18333333333333335       0.11666666666666665        2.3973585227884308E-004   2.0641578941161631E-003  -1.1916032488727517E-003   10.543593647513847        4.6248168055623706E-009
  0.18333333333333335       0.15000000000000002        2.0423740110992697E-004   2.1522980586277008E-003  -1.6963083974712121E-003   11.346750615968507        4.4226608243713716E-009
  0.18333333333333335       0.18333333333333335        1.6951978392973192E-004   2.1682810113874051E-003  -2.2002862284491664E-003   12.336592274122134        4.1877490676578422E-009
  0.18333333333333335       0.21666666666666667        1.3604020732201042E-004   2.1371206598496178E-003  -2.6813823758815836E-003   13.452132262946469        3.9231231874214956E-009
  0.18333333333333335       0.25000000000000000        1.0436793958928304E-004   2.0651527356809465E-003  -3.1230973592997653E-003   14.641248407710323        3.6323070783800260E-009
  0.18333333333333335       0.28333333333333333        7.5127599208727613E-005   1.9512043370057068E-003  -3.5125825699357576E-003   15.867773245496748        3.3193248930724062E-009
  0.18333333333333335       0.31666666666666665        4.8962635592963701E-005   1.7935039783892504E-003  -3.8400601028364739E-003   17.109348648120779        2.9886948575696959E-009
  0.18333333333333335       0.35000000000000003        2.6494405839262184E-005   1.5925399503671982E-003  -4.0988704515800833E-003   18.351974377376660        2.6453616840463323E-009
  0.18333333333333335       0.38333333333333336        8.2756894768900501E-006   1.3514395362353296E-003  -4.2855361669974518E-003   19.585451590105663        2.2945144352234936E-009
  0.18333333333333335       0.41666666666666669       -5.2519706183441849E-006   1.0752699085174425E-003  -4.3995424610298595E-003   20.800923688326765        1.9412460636365758E-009