 TITLE = "Cavity_simu"
 Variables="X","Y","P","U","V","T","div"
 Zone I=          30 , J=          30 , F = POINT
   1.6666666666666663E-002   1.6666666666666663E-002   3.0061201634955817E-004   1.8500303007728249E-005  -1.8500277214124817E-005   6.0086070969879604        1.5476162059779169E-009
   1.6666666666666663E-002   5.0000000000000003E-002   2.5832502431677576E-004   4.7013902452261322E-005  -8.4014437331142016E-005   6.0528919220557622        1.1729621358404219E-009
   1.6666666666666663E-002   8.3333333333333329E-002   2.1896114387269652E-004   6.0605317273018675E-005  -1.9163361788691863E-004   6.1507200378848719        1.1772080680053087E-009
   1.6666666666666663E-002  0.11666666666666665        1.8290453137777087E-004   6.5340518944012038E-005  -3.1757941484306833E-004   6.3038646868268087        1.1784447922699726E-009
   1.6666666666666663E-002  0.15000000000000002        1.5004867352264907E-004   6.6362333050850637E-005  -4.4928222757097250E-004   6.5061586928323338        1.1775727181556617E-009
   1.6666666666666663E-002  0.18333333333333335        1.2028268828136049E-004   6.6246276169081936E-005  -5.8189079756959094E-004   6.7461191907608953        1.1757061322767437E-009
   1.6666666666666663E-002  0.21666666666666667        9.3613925213348182E-005   6.5800196108998507E-005  -7.1393723068406657E-004   7.0105181201130256        1.1741101528517373E-009
   1.6666666666666663E-002  0.25000000000000000        7.0148068666439186E-005   6.4991896998121669E-005  -8.4472928465381529E-004   7.2873697355684195        1.1741321374360292E-009
   1.6666666666666663E-002  0.28333333333333333        5.0037249453538428E-005   6.3538604246486424E-005  -9.7325974671073033E-004   7.5675407983716365        1.1771294420974410E-009
   1.6666666666666663E-002  0.31666666666666665        3.3435999214613423E-005   6.1183340628442824E-005  -1.0979816522269147E-003   7.8450123712870807        1.1843952528803325E-009
   1.6666666666666663E-002  0.35000000000000003        2.0471819435847862E-005   5.7781806990491495E-005  -1.2169467601545175E-003   8.1163125758653045        1.1970846453858430E-009
   1.6666666666666663E-002  0.38333333333333336        1.1226914196774875E-005   5.3301279150779820E-005  -1.3280298060753108E-003   8.3796900902493121        1.2161440218587394E-009
   1.6666666666666663E-002  0.41666666666666669        5.7271997040946142E-006   4.7788033202729015E-005  -1.4291190774556235E-003   8.6343893815265673        1.2422477460756476E-009
   1.6666666666666663E-002  0.45000000000000001        3.9362400062722222E-006   4.1328173112500024E-005  -1.5182352418042608E-003   8.8801485142353673        1.2757477635058634E-009
   1.6666666666666663E-002  0.48333333333333334        5.7524779587591637E-006   3.4012456372603715E-005  -1.5935758280828795E-003   9.1168919288550718        1.3166413345873373E-009
   1.6666666666666663E-002  0.51666666666666661        1.1008067759097416E-005   2.5910660984870005E-005  -1.6534989007536466E-003   9.3445438853419969        1.3645610685234649E-009
   1.6666666666666663E-002  0.54999999999999993        1.9467505751670414E-005   1.7058161634932159E-005  -1.6964676769843027E-003   9.5629004890449441        1.4187876930162741E-009
   1.6666666666666663E-002  0.58333333333333326        3.0824513396159842E-005   7.4541883635081833E-006  -1.7209799786982352E-003   9.7715265857263063        1.4782827803126904E-009
   1.6666666666666663E-002  0.61666666666666659        4.4696202307985245E-005  -2.9319793759552464E-006  -1.7255021373521302E-003   9.9696654751027651        1.5417366957474598E-009
   1.6666666666666663E-002  0.64999999999999991        6.0614127260236616E-005  -1.4152875178625663E-005  -1.7084172303081595E-003   10.156158414932200        1.6076266816248200E-009
   1.6666666666666663E-002  0.68333333333333324        7.8012015219079507E-005  -2.6279065062833166E-005  -1.6679852353682293E-003   10.329369337585550        1.6742816070190736E-009
   1.6666666666666663E-002  0.71666666666666656        9.6209409312132460E-005  -3.9403234749335830E-005  -1.6023028786521980E-003   10.487102351496915        1.7399501336251566E-009
   1.6666666666666663E-002  0.75000000000000000        1.1438902024866882E-004  -5.3647735522957160E-005  -1.5092518493328979E-003   10.626490893661300        1.8028702966285670E-009
   1.6666666666666663E-002  0.78333333333333333        1.3156342375582041E-004  -6.9154192054950728E-005  -1.3864498606848442E-003   10.743837480020581        1.8613384392823784E-009
   1.6666666666666663E-002  0.81666666666666665        1.4652478906705739E-004  -8.5999725703018607E-005  -1.2312958800083126E-003   10.834413407607288        1.9137752988243606E-009
   1.6666666666666663E-002  0.84999999999999998        1.5777195533764048E-004  -1.0391518518218144E-004  -1.0413809045804084E-003   10.892338493207783        1.9587869642262445E-009
   1.6666666666666663E-002  0.88333333333333330        1.6341803807737277E-004  -1.2153029819867116E-004  -8.1593535529946460E-004   10.910967531467298        1.9952185034352588E-009
   1.6666666666666663E-002  0.91666666666666663        1.6111274450139173E-004  -1.3451295048179498E-004  -5.5989203966205856E-004   10.884976757669662        2.0221978952461583E-009
   1.6666666666666663E-002  0.94999999999999996        1.4810461874956575E-004  -1.3108973565240125E-004  -2.9428928583842225E-004   10.817131034897413        2.0391685059267806E-009
   1.6666666666666663E-002  0.98333333333333317        1.2183105833928278E-004  -8.1599724001462016E-005  -8.1599758099939611E-005   10.736288297420094        2.0459086560314921E-009
   5.0000000000000003E-002   1.6666666666666663E-002   3.0176598343339652E-004   8.5786442143577333E-005  -4.8785815835840394E-005   6.9811802079303522        1.2175368270007925E-009
   5.0000000000000003E-002   5.0000000000000003E-002   2.6054550911971524E-004   1.9901626895059210E-004  -2.0256008197821608E-004   7.0655222900114785        8.2437204979024514E-010
   5.0000000000000003E-002   8.3333333333333329E-002   2.2227853514543525E-004   2.5569675137746418E-004  -4.4203463536474449E-004   7.2589453708127580        8.2508602207431725E-010
   5.0000000000000003E-002  0.11666666666666665        1.8688252270562933E-004   2.7812276163576472E-004  -7.2396244847103600E-004   7.5664199679204014        8.2328653443208832E-010
   5.0000000000000003E-002  0.15000000000000002        1.5430211706789944E-004   2.8421154267574254E-004  -1.0228910214110619E-003   7.9747357176472802        8.1961883807712965E-010
   5.0000000000000003E-002  0.18333333333333335        1.2456158346754533E-004   2.8361172616812435E-004  -1.3254970445736015E-003   8.4590818018438458        8.1486887723580814E-010
   5.0000000000000003E-002  0.21666666666666667        9.7764306879350390E-005   2.7986340695079569E-004  -1.6248792060565111E-003   8.9912561542128717        8.0992209640362578E-010
   5.0000000000000003E-002  0.25000000000000000        7.4063211959999518E-005   2.7333222530365848E-004  -1.9164906251693745E-003   9.5462738385283288        8.0571893774916692E-010
   5.0000000000000003E-002  0.28333333333333333        5.3628944737977358E-005   2.6330638903055797E-004  -2.1960682101989292E-003   10.105668092834019        8.0320776939257765E-010
   5.0000000000000003E-002  0.31666666666666665        3.6624693207726044E-005   2.4908649928166075E-004  -2.4590171819862281E-003   10.657731111897460        8.0329593758060591E-010
   5.0000000000000003E-002  0.35000000000000003        2.3186803088949719E-005   2.3037140639354809E-004  -2.7005447655886377E-003   11.196031059148446        8.0679988124360280E-010
   5.0000000000000003E-002  0.38333333333333336        1.3409101581891407E-005   2.0727439860341101E-004  -2.9160243712831272E-003   11.717532993975366        8.1439574962233197E-010
   5.0000000000000003E-002  0.41666666666666669        7.3305740401946190E-006   1.8019089321298854E-004  -3.1013110110430153E-003   12.221074572327733        8.2657386751144868E-010
   5.0000000000000003E-002  0.45000000000000001        4.9269722690918985E-006   1.4963334486168032E-004  -3.2529028086509685E-003   12.706378603176127        8.4360159049307049E-010
   5.0000000000000003E-002  0.48333333333333334        6.1063683525544212E-006   1.1608910835713867E-004  -3.3679439744145503E-003   13.173480761836320        8.6550020145584328E-010
   5.0000000000000003E-002  0.51666666666666661        1.0707507173652674E-005   7.9927291253839645E-005  -3.4441141100182426E-003   13.622387679608256        8.9204009955622110E-010
   5.0000000000000003E-002  0.54999999999999993        1.8499005311318687E-005   4.1362075709126944E-005  -3.4794658014950324E-003   14.052833654218954        9.2275426373262387E-010
   5.0000000000000003E-002  0.58333333333333326        2.9177378243355306E-005   4.6505858474579103E-007  -3.4722682044633492E-003   14.464074374240512        9.5696625309390354E-010
   5.0000000000000003E-002  0.61666666666666659        4.2362426184896421E-005  -4.2791924211609896E-005  -3.4208968883481568E-003   14.854700957074819        9.9382708789938490E-010
   5.0000000000000003E-002  0.64999999999999991        5.7589288509329790E-005  -8.8487165068714240E-005  -3.3237874744072656E-003   15.222472442235857        1.0323566506861837E-009
   5.0000000000000003E-002  0.68333333333333324        7.4297059037421907E-005  -1.3671346714721409E-004  -3.1794506876101913E-003   15.564158180795848        1.0714871620173816E-009
   5.0000000000000003E-002  0.71666666666666656        9.1813901556300518E-005  -1.8756350479466618E-004  -2.9865382789327427E-003   15.875362882353198        1.1101072162206238E-009
   5.0000000000000003E-002  0.75000000000000000        1.0933798665364815E-004  -2.4111218614075662E-004  -2.7439644909216842E-003   16.150285976549739        1.1471060906709241E-009
   5.0000000000000003E-002  0.78333333333333333        1.2591256362736247E-004  -2.9731199423353434E-004  -2.4511441268944929E-003   16.381359753857517        1.1814168879298315E-009
   5.0000000000000003E-002  0.81666666666666665        1.4039319782313531E-004  -3.5560461306982899E-004  -2.1085353152158204E-003   16.558756709792380        1.2120579852281654E-009
   5.0000000000000003E-002  0.84999999999999998        1.5140851055675978E-004  -4.1383792346627113E-004  -1.7189225596129687E-003   16.669954565763554        1.2381711090442282E-009
   5.0000000000000003E-002  0.88333333333333330        1.5732901696074826E-004  -4.6564876730537677E-004  -1.2903267939825991E-003   16.700147960048415        1.2590544978124951E-009
   5.0000000000000003E-002  0.91666666666666663        1.5629373890629461E-004  -4.9454792721557832E-004  -8.4221655460183626E-004   16.635942041314081        1.2741899063639650E-009
   5.0000000000000003E-002  0.94999999999999996        1.4641277836642454E-004  -4.6083879199574338E-004  -4.1803516503470615E-004   16.479106269732885        1.2832621527902877E-009
   5.0000000000000003E-002  0.98333333333333317        1.2631284393587708E-004  -2.7288733804478648E-004  -1.0968791147803135E-004   16.288072512495411        1.2861701348051979E-009
   8.3333333333333329E-002   1.6666666666666663E-002   2.9991444788449070E-004   1.9923409428711811E-004  -6.4661794363295570E-005   7.8952181187383861        1.2991274618567861E-009
   8.3333333333333329E-002   5.0000000000000003E-002   2.5966174500612521E-004   4.4111686369223977E-004  -2.6643570475315935E-004   8.0132905607332656        8.8014060449503884E-010
   8.3333333333333329E-002   8.3333333333333329E-002   2.2236829988257721E-004   5.6574497451270618E-004  -5.7910991244514111E-004   8.2942114490908807        8.7830409438438561E-010
   8.3333333333333329E-002  0.11666666666666665        1.8762311036795470E-004   6.1876311628882442E-004  -9.4787062046385300E-004   8.7476428976299427        8.7312124891214538E-010
   8.3333333333333329E-002  0.15000000000000002        1.5533087460902785E-004   6.3422456024712383E-004  -1.3395953633932906E-003   9.3533148875697929        8.6527204498643151E-010
   8.3333333333333329E-002  0.18333333333333335        1.2558710375669581E-004   6.3133013283877377E-004  -1.7347207085503672E-003   10.072316900183004        8.5558510103111995E-010
   8.3333333333333329E-002  0.21666666666666667        9.8580023512997709E-005   6.1801609771444752E-004  -2.1212095890788480E-003   10.860639164717037        8.4499857458397720E-010
   8.3333333333333329E-002  0.25000000000000000        7.4529907279144382E-005   5.9600919258133173E-004  -2.4904277730880210E-003   11.679866451239935        8.3451772055209705E-010
   8.3333333333333329E-002  0.28333333333333333        5.3656896435570566E-005   5.6475786857480110E-004  -2.8349785804034772E-003   12.502247383990104        8.2516986646408164E-010
   8.3333333333333329E-002  0.31666666666666665        3.6162523513331030E-005   5.2362540619967221E-004  -3.1480199409179383E-003   13.310722070675187        8.1795612991153455E-010
   8.3333333333333329E-002  0.35000000000000003        2.2214330797978529E-005   4.7270950904534513E-004  -3.4233693128544757E-003   14.096299446357250        8.1379970470751850E-010
   8.3333333333333329E-002  0.38333333333333336        1.1930442481747675E-005   4.1287505032961129E-004  -3.6558284073965365E-003   14.855011278718269        8.1349152501047906E-010
   8.3333333333333329E-002  0.41666666666666669        5.3660518007081287E-006   3.4545536513548938E-004  -3.8414068367504015E-003   15.585582279649781        8.1763571694454251E-010
   8.3333333333333329E-002  0.45000000000000001        2.5046891943431304E-006   2.7189053356808154E-004  -3.9773366445311226E-003   16.287994821900043        8.2660246659635450E-010
   8.3333333333333329E-002  0.48333333333333334        3.2552334084327020E-006   1.9343821111857736E-004  -4.0619017139653588E-003   16.962680981039910        8.4049706886198117E-010
   8.3333333333333329E-002  0.51666666666666661        7.4531892752386187E-006   1.1101258068215968E-004  -4.0941659129315562E-003   17.610030481959775        8.5915478222997436E-010
   8.3333333333333329E-002  0.54999999999999993        1.4863290613445202E-005   2.5156473049891499E-005  -4.0736938489553554E-003   18.230018799160590        8.8216057614158572E-010
   8.3333333333333329E-002  0.58333333333333326        2.5180403713761585E-005  -6.3881356091015284E-005  -4.0003393674725839E-003   18.821875909074457        9.0888642488920479E-010
   8.3333333333333329E-002  0.61666666666666659        3.8026689673470987E-005  -1.5600984121362608E-004  -3.8741462886064198E-003   19.383780390464796        9.3853498844137517E-010
   8.3333333333333329E-002  0.64999999999999991        5.2944443678539417E-005  -2.5114927511580014E-004  -3.6953756099164948E-003   19.912580019295284        9.7018412401062015E-010
   8.3333333333333329E-002  0.68333333333333324        6.9385397411514803E-005  -3.4911191192188743E-004  -3.4646517739441831E-003   20.403526999825534        1.0028296517847202E-009
   8.3333333333333329E-002  0.71666666666666656        8.6698128389134735E-005  -4.4951559702669408E-004  -3.1832135752840789E-003   20.849988729838518        1.0354270704726609E-009
   8.3333333333333329E-002  0.75000000000000000        1.0411536404460104E-004  -5.5167824520982955E-004  -2.8532691393344904E-003   21.243066626750554        1.0669323983331092E-009
   8.3333333333333329E-002  0.78333333333333333        1.2074255110181558E-004  -6.5433652608732512E-004  -2.4784988375755237E-003   21.571049015219064        1.0963423120735616E-009
   8.3333333333333329E-002  0.81666666666666665        1.3554899473152649E-004  -7.5484648856292882E-004  -2.0648411650314715E-003   21.818698592967721        1.1227328546026261E-009
   8.3333333333333329E-002  0.84999999999999998        1.4736577876521832E-004  -8.4719139692570093E-004  -1.6218584930441690E-003   21.966685865057308        1.1452955181456836E-009
   8.3333333333333329E-002  0.88333333333333330        1.5490664272922426E-004  -9.1751130392057857E-004  -1.1652381685017391E-003   21.992422884034131        1.1633689393775182E-009
   8.3333333333333329E-002  0.91666666666666663        1.5686029876269938E-004  -9.3469627841507425E-004  -7.2133743884983306E-004   21.876114728843863        1.1764649150702855E-009
   8.3333333333333329E-002  0.94999999999999996        1.5216662656739133E-004  -8.3120776154673327E-004  -3.3500142569640643E-004   21.622413201518278        1.1842872810891025E-009
   8.3333333333333329E-002  0.98333333333333317        1.4065171273363797E-004  -4.6422108685672257E-004  -8.1645878549117972E-005   21.323764194991433        1.1867426616060661E-009
  0.11666666666666665        1.6666666666666663E-002   2.9434551933301724E-004   3.3237917455198685E-004  -6.8483240755359511E-005   8.7416331632660569        1.4096453596415537E-009
  0.11666666666666665        5.0000000000000003E-002   2.5536068533920931E-004   7.2596375451173829E-004  -2.8470122572676741E-004   8.8862149838723390        9.5447231195089355E-010
  0.11666666666666665        8.3333333333333329E-002   2.1905270320815730E-004   9.3191223536525291E-004  -6.2304110867216216E-004   9.2410031789834406        9.4916311789428054E-010
  0.11666666666666665       0.11666666666666665        1.8491434053180230E-004   1.0222997369976590E-003  -1.0239842215485615E-003   9.8212964531319660        9.3938773947088716E-010
  0.11666666666666665       0.15000000000000002        1.5286556829803582E-004   1.0481423737389900E-003  -1.4497138527588774E-003   10.600848155983668        9.2587582045666750E-010
  0.11666666666666665       0.18333333333333335        1.2307637121525194E-004   1.0388621811519333E-003  -1.8760383101360000E-003   11.527662190981019        9.0951661826932373E-010
  0.11666666666666665       0.21666666666666667        9.5821810293066995E-005   1.0077218377058015E-003  -2.2867871595549831E-003   12.542702839767511        8.9132266671565485E-010
  0.11666666666666665       0.25000000000000000        7.1401364917007354E-005   9.5886826081874386E-004  -2.6701337263874110E-003   13.594625677580952        8.7239092512458871E-010
  0.11666666666666665       0.28333333333333333        5.0102367920077260E-005   8.9297705181081593E-004  -3.0166611141130518E-003   14.646649177623811        8.5386130110887137E-010
  0.11666666666666665       0.31666666666666665        3.2180848682683761E-005   8.1049536870995704E-004  -3.3187088437805958E-003   15.676448030050272        8.3687039069413327E-010
  0.11666666666666665       0.35000000000000003        1.7844392883911321E-005   7.1284986665907262E-004  -3.5703697371159918E-003   16.672495399850771        8.2249847904725115E-010
  0.11666666666666665       0.38333333333333336        7.2345792923097286E-006   6.0243870054637835E-004  -3.7676145960461463E-003   17.629952851059496        8.1170707568606337E-010
  0.11666666666666665       0.41666666666666669        4.1325568850081518E-007   4.8211677504087365E-004  -3.9082611726793748E-003   18.547602364579561        8.0526916211576260E-010
  0.11666666666666665       0.45000000000000001       -2.6432403924619785E-006   3.5461927863425057E-004  -3.9917214656500534E-003   19.425980490506582        8.0370182839635540E-010
  0.11666666666666665       0.48333333333333334       -2.0414583179884520E-006   2.2214686138203869E-004  -4.0185937369117634E-003   20.266312749662152        8.0721969148052353E-010
  0.11666666666666665       0.51666666666666661        2.0370706411025165E-006   8.6189393434172757E-005  -3.9902149455843692E-003   21.069832595699609        8.1572875255779553E-010
  0.11666666666666665       0.54999999999999993        9.3442600799717384E-006  -5.2424422631466361E-005  -3.9082828701994619E-003   21.837243066105863        8.2886167504167552E-010
  0.11666666666666665       0.58333333333333326        1.9570154464711029E-005  -1.9331396024662291E-004  -3.7746237940795490E-003   22.568231417020517        8.4603445343195416E-010
  0.11666666666666665       0.61666666666666659        3.2341543468175642E-005  -3.3625160441386778E-004  -3.5911424462572203E-003   23.261023013514777        8.6650276277105975E-010
  0.11666666666666665       0.64999999999999991        4.7214639258060975E-005  -4.8086257550673686E-004  -3.3599580002787628E-003   23.911976908146769        8.8941036306688925E-010
  0.11666666666666665       0.68333333333333324        6.3664212690403422E-005  -6.2637231114626721E-004  -3.0837080736981926E-003   24.515209982652230        9.1382978267828818E-010
  0.11666666666666665       0.71666666666666656        8.1073142989159278E-005  -7.7140911687329275E-004  -2.7659922884392288E-003   25.062209682948112        9.3879886850500860E-010
  0.11666666666666665       0.75000000000000000        9.8726892766195948E-005  -9.1379389299620702E-004  -2.4119274900139291E-003   25.541373682175731        9.6335636863564833E-010
  0.11666666666666665       0.78333333333333333        1.1581691883278745E-004  -1.0501190211526180E-003  -2.0287995803677517E-003   25.937427126634475        9.8657736494200954E-010
  0.11666666666666665       0.81666666666666665        1.3145601881094714E-004  -1.1746939347586499E-003  -1.6268272414297720E-003   26.230789727908693        1.0076085313337479E-009
  0.11666666666666665       0.84999999999999998        1.4470927481946065E-004  -1.2770464919795756E-003  -1.2201073004785008E-003   26.397390706867260        1.0257017631076781E-009
  0.11666666666666665       0.88333333333333330        1.5465239770444739E-004  -1.3365013987450493E-003  -8.2788236223240970E-004   26.410632161666722        1.0402443056251043E-009
  0.11666666666666665       0.91666666666666663        1.6049662330962772E-004  -1.3112141742232866E-003  -4.7627502740393379E-004   26.250253257032071        1.0507837690243438E-009
  0.11666666666666665       0.94999999999999996        1.6188018214894351E-004  -1.1170974267528107E-003  -2.0020340506669691E-004   25.929963092120058        1.0570464633805066E-009
  0.11666666666666665       0.98333333333333317        1.5950252546157286E-004  -5.8887861352927809E-004  -4.3011685551613807E-005   25.570587250901401        1.0589479154665682E-009
  0.15000000000000002        1.6666666666666663E-002   2.8519681806927637E-004   4.6432334915808590E-004  -6.3460884541680237E-005   9.5186392340126122        1.5488981972011651E-009
  0.15000000000000002        5.0000000000000003E-002   2.4778028599640144E-004   1.0150663522371626E-003  -2.6828958923069137E-004   9.6819880603523085        1.0472503888386830E-009
  0.15000000000000002        8.3333333333333329E-002   2.1251973175686362E-004   1.3077189969995001E-003  -5.9485899917060647E-004   10.092752642676253        1.0375758811159708E-009
  0.15000000000000002       0.11666666666666665        1.7897961587341057E-004   1.4381599515168341E-003  -9.8558279664481396E-004   10.772258844080483        1.0220421679113523E-009
  0.15000000000000002       0.15000000000000002        1.4716873211679531E-004   1.4732736989115382E-003  -1.4008446403137847E-003   11.690301153472380        1.0014404791536258E-009
  0.15000000000000002       0.18333333333333335        1.1735888916932082E-004   1.4526455937398965E-003  -1.8134348571377122E-003   12.784385160833587        9.7673473475889949E-010
  0.15000000000000002       0.21666666666666667        8.9924144590582320E-005   1.3956025757453114E-003  -2.2043500962361509E-003   13.982666529927773        9.4902907060712138E-010
  0.15000000000000002       0.25000000000000000        6.5251565677591739E-005   1.3098755847403762E-003  -2.5598915308269123E-003   15.222209416135344        9.1953448154435957E-010
  0.15000000000000002       0.28333333333333333        4.3700802476826497E-005   1.1986295482140034E-003  -2.8700239045040795E-003   16.457672906364643        8.8953399854374560E-010
  0.15000000000000002       0.31666666666666665        2.5581384527914560E-005   1.0645441741840259E-003  -3.1276774193703229E-003   17.661410944736062        8.6034243184512915E-010
  0.15000000000000002       0.35000000000000003        1.1132034518290120E-005   9.1129121054720559E-004  -3.3285066195143662E-003   18.819171128169696        8.3325445154880384E-010
  0.15000000000000002       0.38333333333333336        5.0191085617928819E-007   7.4342886336648114E-004  -3.4706932126769060E-003   19.925183888297465        8.0947245651233346E-010
  0.15000000000000002       0.41666666666666669       -6.2600569589052761E-006   5.6566379573005487E-004  -3.5545837659452916E-003   20.978453860757064        7.9001152299661148E-010
  0.15000000000000002       0.45000000000000001       -9.2038099867931289E-006   3.8209528344646285E-004  -3.5821464455664167E-003   21.980445434596525        7.7559288906656892E-010
  0.15000000000000002       0.48333333333333334       -8.4662942428587328E-006   1.9574034788277713E-004  -3.5563436130663694E-003   22.933695076807528        7.6656284987187961E-010
  0.15000000000000002       0.51666666666666661       -4.2547720695587806E-006   8.4216994723033911E-006  -3.4805481443927174E-003   23.840878508689663        7.6288363170043394E-010
  0.15000000000000002       0.54999999999999993        3.1679139633821200E-006  -1.7902643761982866E-004  -3.3581104579660393E-003   24.704064776702506        7.6420716543096345E-010
  0.15000000000000002       0.58333333333333326        1.3490993078213231E-005  -3.6633966257483438E-004  -3.1921417632847964E-003   25.524058587667337        7.6997162552078224E-010
  0.15000000000000002       0.61666666666666659        2.6354348637276616E-005  -5.5331103362712671E-004  -2.9855379251991906E-003   26.299812462525754        7.7947901865743630E-010
  0.15000000000000002       0.64999999999999991        4.1339485393999183E-005  -7.3928866951289808E-004  -2.7412367925025946E-003   27.027906567623326        7.9194584744202157E-010
  0.15000000000000002       0.68333333333333324        5.7957243862612809E-005  -9.2275256387816171E-004  -2.4626803156497347E-003   27.702081646679289        8.0653647302475484E-010
  0.15000000000000002       0.71666666666666656        7.5638508341230055E-005  -1.1009880460484695E-003  -2.1544368609757118E-003   28.312793627678481        8.2238982637705682E-010
  0.15000000000000002       0.75000000000000000        9.3734676003792637E-005  -1.2697934058910666E-003  -1.8229231579444561E-003   28.846755839798803        8.3864605364414313E-010
  0.15000000000000002       0.78333333333333333        1.1153356198085176E-004  -1.4230251393304116E-003  -1.4771453758003921E-003   29.286477583220972        8.5447551291528701E-010
  0.15000000000000002       0.81666666666666665        1.2829390722871373E-004  -1.5515512838863814E-003  -1.1293541854699928E-003   29.609975951662214        8.6910983965182709E-010
  0.15000000000000002       0.84999999999999998        1.4329951199906063E-004  -1.6407851705902590E-003  -7.9547803561130304E-004   29.791331617852432        8.8187264782324526E-010
  0.15000000000000002       0.88333333333333330        1.5593774792675607E-004  -1.6653261979138667E-003  -4.9513943207744155E-004   29.804031414725362        8.9220838356274257E-010
  0.15000000000000002       0.91666666666666663        1.6582823653681932E-004  -1.5782829133264920E-003  -2.5085316391818045E-004   29.631988669712076        8.9970640659853274E-010
  0.15000000000000002       0.94999999999999996        1.7307938342683889E-004  -1.2917254720951584E-003  -8.5227936615602732E-005   29.299201351135391        9.0411905219467403E-010
  0.15000000000000002       0.98333333333333317        1.7881727832727427E-004  -6.4428021261754304E-004  -1.2389946275316175E-005   28.939463982597353        9.0537197975238543E-010
  0.18333333333333335        1.6666666666666663E-002   2.7311982293493878E-004   5.8041482609547199E-004  -5.2630537970000079E-005   10.227994982077753        1.7166441527820264E-009
  0.18333333333333335        5.0000000000000003E-002   2.3748999803859512E-004   1.2793363985469162E-003  -2.2816326534287574E-004   10.402383606012524        1.1583224353642341E-009
  0.18333333333333335        8.3333333333333329E-002   2.0336579980981105E-004   1.6579299099414330E-003  -5.1607474154504904E-004   10.849212965936777        1.1434271880023106E-009
  0.18333333333333335       0.11666666666666665        1.7048455600854339E-004   1.8288623348738718E-003  -8.6626416830200672E-004   11.595717596629271        1.1210230764502338E-009
  0.18333333333333335       0.15000000000000002        1.3899617189539311E-004   1.8719274757323361E-003  -1.2403584142029267E-003   12.610274807088985        1.0919709806517242E-009
  0.18333333333333335       0.18333333333333335        1.0929754392418722E-004   1.8362059762329032E-003  -1.6099822879017320E-003   13.823500599240658        1.0573181063316950E-009
  0.18333333333333335       0.21666666666666667        8.1871015449599976E-005   1.7476974785644700E-003  -1.9547222674262568E-003   15.153971502749641        1.0182702198796578E-009
  0.18333333333333335       0.25000000000000000        5.7191803889537703E-005   1.6188740107070942E-003  -2.2602740972380315E-003   16.529196758631180        9.7616662669830490E-010
  0.18333333333333335       0.28333333333333333        3.5684191471348561E-005   1.4565966003045436E-003  -2.5171071396565855E-003   17.896095765753692        9.3245712626949251E-010
  0.18333333333333335       0.31666666666666665        1.7695619066356398E-005   1.2667555415118320E-003  -2.7196319846918716E-003   19.221774632521733        8.8867544226212125E-010
  0.18333333333333335       0.35000000000000003        3.4747327050836393E-006   1.0559049621959255E-003  -2.8656278463798663E-003   20.489114549199467        8.4639697594396379E-010
  0.18333333333333335       0.38333333333333336       -6.8445427853024568E-006   8.3105043045036313E-004  -2.9556765170118612E-003   21.691396317758908        8.0716009722391069E-010
  0.18333333333333335       0.41666666666666669       -1.3246201660789062E-005   5.9873562677991690E-004  -2.9924793088942775E-003   22.828058563526128        7.7233247791977377E-010