 TITLE = "Cavity_simu"
 Variables="X","Y","P","U","V","T","div"
 Zone I=          30 , J=          30 , F = POINT
   1.6666666666666663E-002   1.6666666666666663E-002   1.0778283461227457E-004   6.0892101634454927E-005  -6.0892158340016784E-005   10.007128502483873       -3.4023337112075447E-009
   1.6666666666666663E-002   5.0000000000000003E-002   8.1053404877846390E-005   7.2486687222185473E-005  -1.9427104484949633E-004   10.010290327737911       -2.4568366386451546E-009
   1.6666666666666663E-002   8.3333333333333329E-002   6.3007951728455080E-005   5.6221249015944721E-005  -3.2297906117387579E-004   10.033316214782573       -2.3483383150384174E-009
   1.6666666666666663E-002  0.11666666666666665        5.0353641868234918E-005   3.8907167660031947E-005  -4.1810755388672872E-004   10.064159041656529       -2.2138742622988816E-009
   1.6666666666666663E-002  0.15000000000000002        4.0989835261038106E-005   2.6291767227218859E-005  -4.8330655992669060E-004   10.092343938588307       -2.0552884004085281E-009
   1.6666666666666663E-002  0.18333333333333335        3.3699255425652482E-005   1.8025897305266068E-005  -5.2762428995797536E-004   10.113962251932101       -1.8746395880932243E-009
   1.6666666666666663E-002  0.21666666666666667        2.7782396592311162E-005   1.2717440328396622E-005  -5.5836768673854379E-004   10.129191754065340       -1.6741747562928899E-009
   1.6666666666666663E-002  0.25000000000000000        2.2822314315645606E-005   9.2320614043014407E-006  -5.8031724064583194E-004   10.139604606408746       -1.4563006520097385E-009
   1.6666666666666663E-002  0.28333333333333333        1.8555381500927391E-005   6.8414703937499445E-006  -5.9639081710814073E-004   10.146786298426520       -1.2235547954052121E-009
   1.6666666666666663E-002  0.31666666666666665        1.4803682567880489E-005   5.1134958091403785E-006  -6.0834582001321027E-004   10.151914609409850       -9.7857595431852934E-010
   1.6666666666666663E-002  0.35000000000000003        1.1439484107364505E-005   3.7953281937364329E-006  -6.1725467239359655E-004   10.155762656421492       -7.2407461431289906E-010
   1.6666666666666663E-002  0.38333333333333336        8.3658312856578315E-006   2.7358030419719157E-006  -6.2378582341060789E-004   10.158814755232774       -4.6280356825502411E-010
   1.6666666666666663E-002  0.41666666666666669        5.5053268018816509E-006   1.8404259764430325E-006  -6.2836206343456331E-004   10.161375173745254       -1.9752885647137709E-010
   1.6666666666666663E-002  0.45000000000000001        2.7932149492578450E-006   1.0464194274283752E-006  -6.3124891098059949E-004   10.163643460371972        6.8998969691568164E-011
   1.6666666666666663E-002  0.48333333333333334        1.7283483754541348E-007   3.0866830877536520E-007  -6.3260399199893723E-004   10.165761572501362        3.3407299361004465E-010
   1.6666666666666663E-002  0.51666666666666661       -2.4075793957672496E-006  -4.0873770643053635E-007  -6.3250390711577548E-004   10.167843484911719        5.9505739811121063E-010
   1.6666666666666663E-002  0.54999999999999993       -4.9973377908807996E-006  -1.1383148036497486E-006  -6.3095683053117553E-004   10.169996072041602        8.4941378198722176E-010
   1.6666666666666663E-002  0.58333333333333326       -7.6453514176682420E-006  -1.9141690488626787E-006  -6.2790431427633703E-004   10.172337824046391        1.0947257785606096E-009
   1.6666666666666663E-002  0.61666666666666659       -1.0402101547859065E-005  -2.7777063013552113E-006  -6.2321239853533000E-004   10.175021226691747        1.3287215731166719E-009
   1.6666666666666663E-002  0.64999999999999991       -1.3321834911320058E-005  -3.7861412583291697E-006  -6.1664850300872259E-004   10.178265543826056        1.5492938122739844E-009
   1.6666666666666663E-002  0.68333333333333324       -1.6465475020320031E-005  -5.0274639872426610E-006  -6.0783484269964316E-004   10.182408455347522        1.7545166402089911E-009
   1.6666666666666663E-002  0.71666666666666656       -1.9905260150532349E-005  -6.6486722323829009E-006  -5.9615864486040971E-004   10.187984422990658        1.9426598300929104E-009
   1.6666666666666663E-002  0.75000000000000000       -2.3733439532327995E-005  -8.9087588154455575E-006  -5.8060114623158514E-004   10.195826163118914        2.1121999394749930E-009
   1.6666666666666663E-002  0.78333333333333333       -2.8080421171195493E-005  -1.2270818115720784E-005  -5.5942149639994063E-004   10.207145176026437        2.2618287509861695E-009
   1.6666666666666663E-002  0.81666666666666665       -3.3154145662496647E-005  -1.7534476139994157E-005  -5.2961612460609552E-004   10.223452752090173        2.3904590620328625E-009
   1.6666666666666663E-002  0.84999999999999998       -3.9323873439098056E-005  -2.5938702003249332E-005  -4.8614286500139815E-004   10.246028521624057        2.4972281660075313E-009
   1.6666666666666663E-002  0.88333333333333330       -4.7287011878238556E-005  -3.8934147621867797E-005  -4.2126993073082525E-004   10.274524832060216        2.5814991806531740E-009
   1.6666666666666663E-002  0.91666666666666663       -5.8363837200969510E-005  -5.6712490211723782E-005  -3.2562320582457194E-004   10.304578124398175        2.6428605228757951E-009
   1.6666666666666663E-002  0.94999999999999996       -7.4908879198441828E-005  -7.3121562738063010E-005  -1.9578906414171554E-004   10.325914729306962        2.6811236546880890E-009
   1.6666666666666663E-002  0.98333333333333317       -1.0053819999753452E-004  -6.1333683420473117E-005  -6.1333728359129144E-005   10.327419524700501        2.6963193617939030E-009
   5.0000000000000003E-002   1.6666666666666663E-002   1.0189635404836766E-004   1.8335441713633862E-004  -6.1570254296578039E-005   14.498071051168868       -2.4257489558698886E-009
   5.0000000000000003E-002   5.0000000000000003E-002   7.9887071357995443E-005   2.3424571234788408E-004  -2.1241287213741926E-004   14.496446133979562       -1.5384450024677476E-009
   5.0000000000000003E-002   8.3333333333333329E-002   6.3459384403475919E-005   1.9230629935022522E-004  -3.8154906144414937E-004   14.536302798037337       -1.4666478699923435E-009
   5.0000000000000003E-002  0.11666666666666665        5.1122464376738861E-005   1.3928231290766008E-004  -5.2288088777274820E-004   14.593883957297781       -1.3787121366445887E-009
   5.0000000000000003E-002  0.15000000000000002        4.1670019206469740E-005   9.7360702837735307E-005  -6.2912607798608312E-004   14.647763712501490       -1.2758343392177407E-009
   5.0000000000000003E-002  0.18333333333333335        3.4219067483975451E-005   6.8311075447459414E-005  -7.0616256779258777E-004   14.689653136646069       -1.1593424453955337E-009
   5.0000000000000003E-002  0.21666666666666667        2.8164570069871469E-005   4.8897812127809971E-005  -7.6188481660088088E-004   14.719499583091544       -1.0306785043490141E-009
   5.0000000000000003E-002  0.25000000000000000        2.3102698336748901E-005   3.5798247087995645E-005  -8.0268190438560804E-004   14.740134861870505       -8.9138055573909081E-010
   5.0000000000000003E-002  0.28333333333333333        1.8762329128920835E-005   2.6649924435119720E-005  -8.3298303955336560E-004   14.754523259041198       -7.4306413626323842E-010
   5.0000000000000003E-002  0.31666666666666665        1.4956260972589185E-005   1.9958890491758153E-005  -8.5568194424892629E-004   14.764901243388035       -5.8740367442095681E-010
   5.0000000000000003E-002  0.35000000000000003        1.1549828450250772E-005   1.4813011964618190E-005  -8.7263621559150947E-004   14.772754539652386       -4.2611394995189025E-010
   5.0000000000000003E-002  0.38333333333333336        8.4414942506558302E-006   1.0651049917680673E-005  -8.8503802645315411E-004   14.779024749965677       -2.6093180166466418E-010
   5.0000000000000003E-002  0.41666666666666669        5.5508712996915734E-006   7.1154508046313612E-006  -8.9365207504746714E-004   14.784310354811170       -9.3598048663814590E-011
   5.0000000000000003E-002  0.45000000000000001        2.8111554633766177E-006   3.9654565997378082E-006  -8.9895929196805624E-004   14.789008209239020        7.4160284033522594E-011
   5.0000000000000003E-002  0.48333333333333334        1.6413640827557691E-007   1.0260333699919783E-006  -9.0124060121858055E-004   14.793403273238980        2.4064759277501622E-010
   5.0000000000000003E-002  0.51666666666666661       -2.4433002697663327E-006  -1.8438332083924632E-006  -9.0062292942774918E-004   14.797725732138598        4.0421688367905766E-010
   5.0000000000000003E-002  0.54999999999999993       -5.0618429409839074E-006  -4.7734651089110832E-006  -8.9709972000555230E-004   14.802191699628210        5.6328635069584181E-010
   5.0000000000000003E-002  0.58333333333333326       -7.7420391189915965E-006  -7.8999762587990500E-006  -8.9053122501551378E-004   14.807039728418928        7.1635484398752461E-010
   5.0000000000000003E-002  0.61666666666666659       -1.0536552303604939E-005  -1.1390554067680233E-005  -8.8062441908329128E-004   14.812573964313916        8.6201589258576988E-010
   5.0000000000000003E-002  0.64999999999999991       -1.3502772605980082E-005  -1.5474680028224843E-005  -8.6688684909032483E-004   14.819226214326898        9.9896991883046543E-010
   5.0000000000000003E-002  0.68333333333333324       -1.6706336120951658E-005  -2.0497788770637222E-005  -8.4854155536586546E-004   14.827651788447287        1.1260345329777710E-009
   5.0000000000000003E-002  0.71666666666666656       -2.0226543590958934E-005  -2.7015450753288208E-005  -8.2438054881140137E-004   14.838871772653508        1.2421528569183521E-009
   5.0000000000000003E-002  0.75000000000000000       -2.4165613548870733E-005  -3.5955178751513588E-005  -7.9252473825970940E-004   14.854451320918470        1.3463999682956224E-009
   5.0000000000000003E-002  0.78333333333333333       -2.8665576547547687E-005  -4.8866281791189195E-005  -7.5006238517288015E-004   14.876626556338797        1.4379875807896819E-009
   5.0000000000000003E-002  0.81666666666666665       -3.3939894084650413E-005  -6.8207954267888131E-005  -6.9259868838765482E-004   14.908116170446798        1.5162670919180443E-009
   5.0000000000000003E-002  0.84999999999999998       -4.0331423440090606E-005  -9.7369448470046387E-005  -6.1396759031956904E-004   14.951067817463896        1.5807312026168419E-009
   5.0000000000000003E-002  0.88333333333333330       -4.8411015664559210E-005  -1.3941871267560292E-004  -5.0692507489506343E-004   15.004366710409847        1.6310142299247321E-009
   5.0000000000000003E-002  0.91666666666666663       -5.9118946120796656E-005  -1.9197653186721418E-004  -3.6682305105433698E-004   15.059050082089394        1.6668913220205250E-009
   5.0000000000000003E-002  0.94999999999999996       -7.3886231893536698E-005  -2.3233534139745516E-004  -2.0217922776977529E-004   15.094673839776673        1.6882766313425224E-009
   5.0000000000000003E-002  0.98333333333333317       -9.4479481768994369E-005  -1.8071083044252038E-004  -5.8043491855251148E-005   15.089906871390919        1.6952206201292785E-009
   8.3333333333333329E-002   1.6666666666666663E-002   8.8499672647417808E-005   2.7354928943595837E-004  -2.8624696155966477E-005   18.169715726937504       -2.2634265301867823E-009
   8.3333333333333329E-002   5.0000000000000003E-002   7.2767004290025966E-005   3.7861653266018974E-004  -1.1234789852683162E-004   18.158379266679326       -1.4283663683258008E-009
   8.3333333333333329E-002   8.3333333333333329E-002   5.9618129697616407E-005   3.3075181403635119E-004  -2.2602814079417468E-004   18.197301339215574       -1.3610792536436489E-009
   8.3333333333333329E-002  0.11666666666666665        4.8949100400016909E-005   2.5198019253529539E-004  -3.3583980020125952E-004   18.261707980659999       -1.2788760796883514E-009
   8.3333333333333329E-002  0.15000000000000002        4.0354298276781780E-005   1.8324198754896448E-004  -4.2817385959850350E-004   18.325326700867162       -1.1828803180014003E-009
   8.3333333333333329E-002  0.18333333333333335        3.3365417242846139E-005   1.3239151859813266E-004  -5.0109917586044727E-004   18.376551331413967       -1.0743356549432898E-009
   8.3333333333333329E-002  0.21666666666666667        2.7577640713084791E-005   9.6740071497795123E-005  -5.5729969988858158E-004   18.414042114295508       -9.5458954022659137E-010
   8.3333333333333329E-002  0.25000000000000000        2.2681586267358518E-005   7.1812628459703762E-005  -6.0035931454096051E-004   18.440533486300502       -8.2507616927865457E-010
   8.3333333333333329E-002  0.28333333333333333        1.8451524641971716E-005   5.3943580652801552E-005  -6.3336626940959262E-004   18.459334692580832       -6.8729911638278768E-010
   8.3333333333333329E-002  0.31666666666666665        1.4723203181034065E-005   4.0621659741939522E-005  -6.5862383285824515E-004   18.473085230827703       -5.4281407407125171E-010
   8.3333333333333329E-002  0.35000000000000003        1.1374362183435444E-005   3.0228790975986304E-005  -6.7774814226960369E-004   18.483599675016894       -3.9321183624690254E-010
   8.3333333333333329E-002  0.38333333333333336        8.3106407961715045E-006   2.1730471366818303E-005  -6.9184155387445141E-004   18.492057276729582       -2.4010161198649571E-010
   8.3333333333333329E-002  0.41666666666666669        5.4560549524401948E-006   1.4448836581522231E-005  -7.0164032383493707E-004   18.499222340873679       -8.5094748982677063E-011
   8.3333333333333329E-002  0.45000000000000001        2.7466346463542184E-006   7.9174312188541448E-006  -7.0761846788237263E-004   18.505609329665024        7.0211469640644661E-011
   8.3333333333333329E-002  0.48333333333333334        1.2606816413757215E-007   1.7909801482823058E-006  -7.1005406987476700E-004   18.511591469761978        2.2424992976243603E-010
   8.3333333333333329E-002  0.51666666666666661       -2.4574397031744453E-006  -4.2129906887912086E-006  -7.0906751021992021E-004   18.517471619708950        3.7549977793219658E-010
   8.3333333333333329E-002  0.54999999999999993       -5.0536237966810947E-006  -1.0356553590852335E-005  -7.0463844258802574E-004   18.523533400852699        5.2250206860281721E-010
   8.3333333333333329E-002  0.58333333333333326       -7.7123012143913523E-006  -1.6918931656939509E-005  -6.9660485259768698E-004   18.530086780515891        6.6387447459920895E-010
   8.3333333333333329E-002  0.61666666666666659       -1.0485502546415413E-005  -2.4238908427031292E-005  -6.8464429809625741E-004   18.537520629972988        7.9832441520063732E-010
   8.3333333333333329E-002  0.64999999999999991       -1.3429894624267028E-005  -3.2773588871718999E-005  -6.6823454515353513E-004   18.546375803785679        9.2466039024793195E-010
   8.3333333333333329E-002  0.68333333333333324       -1.6609871582065109E-005  -4.3189954898626895E-005  -6.4658869571540870E-004   18.557453821807979        1.0418012735043808E-009
   8.3333333333333329E-002  0.71666666666666656       -2.0101863950384425E-005  -5.6512237356897358E-005  -6.1856067355873568E-004   18.571970856793953        1.1487836337580049E-009
   8.3333333333333329E-002  0.75000000000000000       -2.4000745468570822E-005  -7.4347880180054924E-005  -5.8252691304321513E-004   18.591735449574045        1.2447672662584119E-009
   8.3333333333333329E-002  0.78333333333333333       -2.8429794730825858E-005  -9.9178719900311487E-005  -5.3628403728915109E-004   18.619234076762964        1.3290389650356255E-009
   8.3333333333333329E-002  0.81666666666666665       -3.3556544991965824E-005  -1.3455518960341122E-004  -4.7708796589125560E-004   18.657304523016471        1.4010148861355598E-009
   8.3333333333333329E-002  0.84999999999999998       -3.9617650606782550E-005  -1.8460631563485555E-004  -4.0213486215476431E-004   18.707767904350288        1.4602415093073473E-009
   8.3333333333333329E-002  0.88333333333333330       -4.6954225389992028E-005  -2.5129668965304022E-004  -3.1006243046398255E-004   18.768212427232626        1.5063955105011628E-009
   8.3333333333333329E-002  0.91666666666666663       -5.6045317694829533E-005  -3.2595479572251565E-004  -2.0430810774557575E-004   18.826923758747714        1.5392826115297187E-009
   8.3333333333333329E-002  0.94999999999999996       -6.7471576579760856E-005  -3.6845519965879390E-004  -9.8853701358728592E-005   18.859923110844804        1.5588355506586382E-009
   8.3333333333333329E-002  0.98333333333333317       -8.1584586696721001E-005  -2.6316728447796871E-004  -2.4413016519063239E-005   18.846130296336721        1.5651113443454490E-009
  0.11666666666666665        1.6666666666666663E-002   7.2865204112937829E-005   3.0152676958015713E-004   6.4714406931227617E-007   20.902724313864798       -2.0531207966994276E-009
  0.11666666666666665        5.0000000000000003E-002   6.2940045816519026E-005   4.4907087540098438E-004  -1.4061593654175641E-005   20.885814500349131       -1.2876478866453642E-009
  0.11666666666666665        8.3333333333333329E-002   5.3398242875845723E-005   4.1569629922479648E-004  -5.5780267703684352E-005   20.911869930209136       -1.2261632037404574E-009
  0.11666666666666665       0.11666666666666665        4.4923424857794646E-005   3.3286455330480870E-004  -1.1179753787872883E-004   20.963766984913399       -1.1513317048870986E-009
  0.11666666666666665       0.15000000000000002        3.7662072715636118E-005   2.5237660398374264E-004  -1.6948253364030069E-004   21.018673788621744       -1.0641833581882809E-009
  0.11666666666666665       0.18333333333333335        3.1499604119148001E-005   1.8854586290149936E-004  -2.2184624957072310E-004   21.064925984085026       -9.6585394716852679E-010
  0.11666666666666665       0.21666666666666667        2.6242075474755213E-005   1.4134650890236511E-004  -2.6640657145634065E-004   21.099979950284876       -8.5756976476655811E-010
  0.11666666666666665       0.25000000000000000        2.1701160866646936E-005   1.0691908142111239E-004  -3.0305990346772874E-004   21.125458077853263       -7.4063183212215444E-010
  0.11666666666666665       0.28333333333333333        1.7720173535798354E-005   8.1398751100814271E-005  -3.3261461983197021E-004   21.143954562448741       -6.1640001252066118E-010
  0.11666666666666665       0.31666666666666665        1.4174862732326693E-005   6.1865986676000158E-005  -3.5605659264523486E-004   21.157723122644384       -4.8627742457729717E-010
  0.11666666666666665       0.35000000000000003        1.0966833027161723E-005   4.6313636923061671E-005  -3.7426148568165687E-004   21.168391197735982       -3.5169534277033898E-010
  0.11666666666666665       0.38333333333333336        8.0164917826041491E-006   3.3395058594199501E-005  -3.8791752723639169E-004   21.177053469695164       -2.1409876427075022E-010
  0.11666666666666665       0.41666666666666669        5.2573823911895821E-006   2.2193934703319067E-005  -3.9752845286220956E-004   21.184437963202100       -7.4932409317154600E-011
  0.11666666666666665       0.45000000000000001        2.6319844982854859E-006   1.2060298198916014E-005  -4.0343827434067506E-004   21.191044211382408        6.4373151693062139E-011
  0.11666666666666665       0.48333333333333334        8.8623202398372066E-008   2.5011745703376381E-006  -4.0585572439622692E-004   21.197239267924093        2.0241570431169475E-010
  0.11666666666666665       0.51666666666666661       -2.4208836188028679E-006  -6.8939993191379462E-006  -4.0487145084275739E-004   21.203322539365786        3.3783608105030644E-010
  0.11666666666666665       0.54999999999999993       -4.9431328357934301E-006  -1.6509550424895821E-005  -4.0046648459074832E-004   21.209573326990892        4.6933287310246645E-010
  0.11666666666666665       0.58333333333333326       -7.5248203502560833E-006  -2.6753884363090245E-005  -3.9251208751779881E-004   21.216292877897995        5.9567623018419794E-010
  0.11666666666666665       0.61666666666666659       -1.0214376300592111E-005  -3.8114975290592198E-005  -3.8076157622293078E-004   21.223851359602495        7.1572003244825197E-010
  0.11666666666666665       0.64999999999999991       -1.3063693380219965E-005  -5.1233082691639007E-005  -3.6483571403022567E-004   21.232750336408849        8.2841195556994374E-010
  0.11666666666666665       0.68333333333333324       -1.6130057934296883E-005  -6.7005430679542457E-005  -3.4420653173959854E-004   21.243710986955662        9.3280146324162261E-010
  0.11666666666666665       0.71666666666666656       -1.9478338340493865E-005  -8.6738245133018886E-005  -3.1819300114869825E-004   21.257790666045963        1.0280457970373094E-009
  0.11666666666666665       0.75000000000000000       -2.3183385345198660E-005  -1.1234762576566609E-004  -2.8600093271897141E-004   21.276499226939848        1.1134141900560196E-009
  0.11666666666666665       0.78333333333333333       -2.7332449191014095E-005  -1.4654749683551822E-004  -2.4687520469370163E-004   21.301802380837504        1.1882905310775516E-009
  0.11666666666666665       0.81666666666666665       -3.2027228435583841E-005  -1.9277115936949438E-004  -2.0048644321498895E-004   21.335731219407950        1.2521747100573827E-009
  0.11666666666666665       0.84999999999999998       -3.7384737102910413E-005  -2.5410670723050109E-004  -1.4772309528785334E-004   21.379092006796288        1.3046827852022241E-009
  0.11666666666666665       0.88333333333333330       -4.3533885874155388E-005  -3.2958378426668202E-004  -9.2007947154914058E-005   21.428732749427429        1.3455462137285795E-009
  0.11666666666666665       0.91666666666666663       -5.0593340213213614E-005  -4.0458209477968758E-004  -4.0847780105264034E-005   21.473732884370715        1.3746102463761678E-009
  0.11666666666666665       0.94999999999999996       -5.8574708681613391E-005  -4.3014328841786535E-004  -5.9867009332001925E-006   21.494433001207650        1.3918316460297120E-009
  0.11666666666666665       0.98333333333333317       -6.7049219378302296E-005  -2.8474336728238469E-004   2.8368843415278796E-006   21.477378397036706        1.3972758193536716E-009
  0.15000000000000002        1.6666666666666663E-002   5.8281947532944318E-005   2.8445557792335297E-004   1.6423983408780720E-005   22.742478647714680       -1.7976018729104482E-009
  0.15000000000000002        5.0000000000000003E-002   5.2722626812445733E-005   4.5291648349108423E-004   4.4358200424064848E-005   22.726641676620062       -1.1181239307914495E-009
  0.15000000000000002        8.3333333333333329E-002   4.6319587975835136E-005   4.4274312378683793E-004   5.5184363561531445E-005   22.739280863821701       -1.0636590288155010E-009
  0.15000000000000002       0.11666666666666665        3.9998329171985431E-005   3.7225912192500259E-004   4.4760166572728157E-005   22.771961104055592       -9.9774280862014592E-010
  0.15000000000000002       0.15000000000000002        3.4180412907176713E-005   2.9456355221300901E-004   2.0863576575665325E-005   22.809351252501699       -9.2129259451380341E-010
  0.15000000000000002       0.18333333333333335        2.8985190561704835E-005   2.2808672912477207E-004  -8.5005850571858355E-006   22.842459535735614       -8.3531417080593556E-010
  0.15000000000000002       0.21666666666666667        2.4387766082189204E-005   1.7596526707217041E-004  -3.8099944225073918E-005   22.868541507940236       -7.4088777463326289E-010
  0.15000000000000002       0.25000000000000000        2.0311303286706207E-005   1.3608038774165946E-004  -6.5226726341423641E-005   22.888109756781272       -6.3915376149244890E-010
  0.15000000000000002       0.28333333333333333        1.6669553834833025E-005   1.0532815978197452E-004  -8.8762767103623259E-005   22.902690847921406       -5.3129841671994971E-010
  0.15000000000000002       0.31666666666666665        1.3382316663370727E-005   8.1030843152534474E-005  -1.0841509365665589E-004   22.913773566757818       -4.1854031069925302E-010
  0.15000000000000002       0.35000000000000003        1.0379052377126460E-005   6.1191930665296338E-005  -1.2425337681618004E-004   22.922499690254352       -3.0211755460644169E-010
  0.15000000000000002       0.38333333333333336        7.5982320412257724E-006   4.4389460243499695E-005  -1.3647004817277591E-004   22.929669271184991       -1.8327608473835827E-010
  0.15000000000000002       0.41666666666666669        4.9855406475391141E-006   2.9608915713507176E-005  -1.4526851413254640E-004   22.935830907755374       -6.3258745572510044E-011
  0.15000000000000002       0.45000000000000001        2.4920180976888529E-006   1.6102519176522760E-005  -1.5081589492708312E-004   22.941369818489665        5.6705561578794528E-011
  0.15000000000000002       0.48333333333333334        7.2427045644034972E-008   3.2858458474042625E-006  -1.5322532881107109E-004   22.946573587893916        1.7541359301716567E-010
  0.15000000000000002       0.51666666666666661       -2.3161310717061564E-006  -9.3376219470939650E-006  -1.5255063422421272E-004   22.951678483544750        2.9170093311583090E-010
  0.15000000000000002       0.54999999999999993       -4.7154029149015242E-006  -2.2235840509300072E-005  -1.4878566270843134E-004   22.956904130154260        4.0445592645985302E-010
  0.15000000000000002       0.58333333333333326       -7.1670283989641116E-006  -3.5901873341826626E-005  -1.4186574768327773E-004   22.962483983101134        5.1263271844690164E-010
  0.15000000000000002       0.61666666666666659       -9.7134754416531391E-006  -5.0911204559652828E-005  -1.3167200007549511E-004   22.968698229238338        6.1526223466045263E-010
  0.15000000000000002       0.64999999999999991       -1.2398846240175958E-005  -6.7991852066133789E-005  -1.1804281577706228E-004   22.975915349485522        7.1146073082374583E-010
  0.15000000000000002       0.68333333333333324       -1.5269446667147756E-005  -8.8115880643684961E-005  -1.0080272417721574E-004   22.984647138588720        8.0043603451103451E-010
  0.15000000000000002       0.71666666666666656       -1.8373852731214591E-005  -1.1261524745382408E-004  -7.9828741770249874E-005   22.995614674584079        8.8149180988393583E-010
  0.15000000000000002       0.75000000000000000       -2.1761959143393886E-005  -1.4330095803600780E-004  -5.5190409325797261E-005   23.009798805198269        9.5403015869244268E-010
  0.15000000000000002       0.78333333333333333       -2.5482159316360591E-005  -1.8249057586987565E-004  -2.7419654824905518E-005   23.028390559564158        1.0175528608732595E-009
  0.15000000000000002       0.81666666666666665       -2.9575423738271180E-005  -2.3266094481797102E-004   2.0245236738754980E-006   23.052451164717613        1.0716614748385034E-009
  0.15000000000000002       0.84999999999999998       -3.4064497325010110E-005  -2.9503733061015286E-004   3.0081663651126775E-005   23.081974038878979        1.1160565375513409E-009
  0.15000000000000002       0.88333333333333330       -3.8934518042193917E-005  -3.6570010559647498E-004   5.1413542174657719E-005   23.114103192520780        1.1505359978538493E-009
  0.15000000000000002       0.91666666666666663       -4.4093256842501504E-005  -4.2676180215086906E-004   5.8549487920740938E-005   23.141011323746973        1.1749930764687680E-009
  0.15000000000000002       0.94999999999999996       -4.9273578316479863E-005  -4.2931093856103517E-004   4.5035851777171926E-005   23.150312414510196        1.1894136461333693E-009
  0.15000000000000002       0.98333333333333317       -5.3788784027488196E-005  -2.6563490209261870E-004   1.6271537662420334E-005   23.136019080869822        1.1938732454898349E-009
  0.18333333333333335        1.6666666666666663E-002   4.6083413839396033E-005   2.4718051712096340E-004   2.0851022432648452E-005   23.858736937057291       -1.5000557510545798E-009
  0.18333333333333335        5.0000000000000003E-002   4.3332713991599199E-005   4.1785262828266290E-004   6.5255632466935498E-005   23.847543457010431       -9.2189282553320484E-010
  0.18333333333333335        8.3333333333333329E-002   3.9288197991015985E-005   4.2957152098011670E-004   1.0266486102371034E-004   23.851817265112928       -8.7557827763325158E-010
  0.18333333333333335       0.11666666666666665        3.4784342603631829E-005   3.7837297419850212E-004   1.2014674592922438E-004   23.868672806373269       -8.2001054180929657E-010
  0.18333333333333335       0.15000000000000002        3.0301908865752403E-005   3.1218386113133470E-004   1.2030911648408487E-004   23.889725564744406       -7.5597668018146172E-010
  0.18333333333333335       0.18333333333333335        2.6070854114750368E-005   2.5059141627104160E-004   1.0954822877041443E-004   23.909374611339441       -6.8433213728982117E-010
  0.18333333333333335       0.21666666666666667        2.2172783374633249E-005   1.9914722752253773E-004   9.3460892566294817E-005   23.925491633724469       -6.0598816698127778E-010
  0.18333333333333335       0.25000000000000000        1.8613720831509895E-005   1.5767820740428962E-004   7.5807852770833292E-005   23.937995512669946       -5.2189912222617985E-010
  0.18333333333333335       0.28333333333333333        1.5365996502005624E-005   1.2429031446233987E-004   5.8783883766681171E-005   23.947578354085827       -4.3305007344819624E-010
  0.18333333333333335       0.31666666666666665        1.2389209610517441E-005   9.6957910573520380E-005   4.3546959496127359E-005   23.955032521205329       -3.4044531050606702E-010
  0.18333333333333335       0.35000000000000003        9.6396656505698989E-006   7.3998190771027399E-005   3.0651893358911337E-005   23.961010455766061       -2.4509821711267421E-010
  0.18333333333333335       0.38333333333333336        7.0741836003381599E-006   5.4119774826825938E-005   2.0331975384538307E-005   23.965990830757789       -1.4802283937421709E-010
  0.18333333333333335       0.41666666666666669        4.6513516125692971E-006   3.6346399057615505E-005   1.2662636003798783E-005   23.970313283381909       -5.0226855633590459E-011