 TITLE = "Cavity_simu"
 Variables="X","Y","P","U","V","T","div"
 Zone I=          30 , J=          30 , F = POINT
   1.6666666666666663E-002   1.6666666666666663E-002   3.8978809067667311E-004   1.4022661185430107E-005  -1.4022641712923943E-005   5.9121299735693649        1.1683503699016703E-009
   1.6666666666666663E-002   5.0000000000000003E-002   3.4676451616091355E-004   4.1548461475254646E-005  -6.9593732048250993E-005   5.9325133680715467        7.7117109182830990E-010
   1.6666666666666663E-002   8.3333333333333329E-002   3.0569567325894071E-004   5.6063706810302624E-005  -1.6720587695810059E-004   5.9833235196776524        6.3137136881510902E-010
   1.6666666666666663E-002  0.11666666666666665        2.6703603418842646E-004   6.1742279308097124E-005  -2.8501184509122134E-004   6.0694728337942658        4.4774537116126778E-010
   1.6666666666666663E-002  0.15000000000000002        2.3067930169272594E-004   6.3763181652034742E-005  -4.1051729488620042E-004   6.1894533026618586        2.2216379604034220E-010
   1.6666666666666663E-002  0.18333333333333335        1.9650929327282216E-004   6.5087664042785720E-005  -5.3936813759822798E-004   6.3372563228193339       -4.3196222206803858E-011
   1.6666666666666663E-002  0.21666666666666667        1.6457757154671044E-004   6.6706211172405945E-005  -6.7116201929780348E-004   6.5052731745069057       -3.4586680741632847E-010
   1.6666666666666663E-002  0.25000000000000000        1.3510016380533700E-004   6.8543515531149722E-005  -8.0641176315081450E-004   6.6866720804811344       -6.8310051452163956E-010
   1.6666666666666663E-002  0.28333333333333333        1.0840013898997606E-004   7.0156098039971510E-005  -9.4511140563817593E-004   6.8765542394929788       -1.0518738987469467E-009
   1.6666666666666663E-002  0.31666666666666665        8.4852648391032631E-005   7.1077913285270690E-005  -1.0863454586426747E-003   7.0719958966777172       -1.4488814948157569E-009
   1.6666666666666663E-002  0.35000000000000003        6.4845188530208812E-005   7.0922073948648294E-005  -1.2283455011999553E-003   7.2714844134083778       -1.8705201961996543E-009
   1.6666666666666663E-002  0.38333333333333336        4.8748264037480168E-005   6.9375548705632978E-005  -1.3686431935773691E-003   7.4742266900251266       -2.3128677636291561E-009
   1.6666666666666663E-002  0.41666666666666669        3.6889497901133692E-005   6.6170353708087286E-005  -1.5041891807332788E-003   7.6795866480400798       -2.7716636017555141E-009
   1.6666666666666663E-002  0.45000000000000001        2.9527046477948223E-005   6.1063290195304874E-005  -1.6314229248694597E-003   7.8867107605398177       -3.2423037145748457E-009
   1.6666666666666663E-002  0.48333333333333334        2.6820695873104562E-005   5.3831158097521538E-005  -1.7463174891983822E-003   8.0943036365961163       -3.7198620572720387E-009
   1.6666666666666663E-002  0.51666666666666661        2.8800361088321229E-005   4.4281605571310028E-005  -1.8444303848506823E-003   8.3004981998449097       -4.1991460595150465E-009
   1.6666666666666663E-002  0.54999999999999993        3.5332607779271349E-005   3.2279019692953377E-005  -1.9209911580137877E-003   8.5027819874515291       -4.6747844540707961E-009
   1.6666666666666663E-002  0.58333333333333326        4.6086932470426725E-005   1.7783872458762380E-005  -1.9710542137675304E-003   8.6979627698334117       -5.1413371819457321E-009
   1.6666666666666663E-002  0.61666666666666659        6.0505049071853552E-005   9.0134719618896633E-007  -1.9897396123349739E-003   8.8821725760226862       -5.5934123298717153E-009
   1.6666666666666663E-002  0.64999999999999991        7.7778110804986388E-005  -1.8068608891295667E-005  -1.9725725442930300E-003   9.0509190014882357       -6.0257774423411875E-009
   1.6666666666666663E-002  0.68333333333333324        9.6838132032495692E-005  -3.8591377006389578E-005  -1.9159127660492523E-003   9.1991985392929063       -6.4334570028072580E-009
   1.6666666666666663E-002  0.71666666666666656        1.1637013905400655E-004  -5.9881643506645937E-005  -1.8174399662907155E-003   9.3216902425180859       -6.8118129205839428E-009
   1.6666666666666663E-002  0.75000000000000000        1.3484996141725468E-004  -8.0923049615546884E-005  -1.6766355059755415E-003   9.4130506452912517       -7.1566082209678639E-009
   1.6666666666666663E-002  0.78333333333333333        1.5060845423498417E-004  -1.0052497691564179E-004  -1.4951877231220985E-003   9.4683358162683398       -7.4640565108849422E-009
   1.6666666666666663E-002  0.81666666666666665        1.6191640860544108E-004  -1.1739179573970277E-004  -1.2772712037153512E-003   9.4835934738737073       -7.7308593259689529E-009
   1.6666666666666663E-002  0.84999999999999998        1.6707712767578600E-004  -1.3012292499240126E-004  -1.0297567444014740E-003   9.4567227766244848       -7.9542342807867317E-009
   1.6666666666666663E-002  0.88333333333333330        1.6451038163991223E-004  -1.3693868961885518E-004  -7.6269539789304607E-004   9.3888506610251561       -8.1319354357928253E-009
   1.6666666666666663E-002  0.91666666666666663        1.5282385479559499E-004  -1.3465168188578279E-004  -4.9110529962512433E-004   9.2868408947090622       -8.2622675333376971E-009
   1.6666666666666663E-002  0.94999999999999996        1.3092717546182424E-004  -1.1582658993043450E-004  -2.4062730458160797E-004   9.1683135657765789       -8.3440945229662500E-009
   1.6666666666666663E-002  0.98333333333333317        9.8438199499843994E-005  -6.2400566473761113E-005  -6.2400426859707749E-005   9.0716051368769328       -8.3768432017350403E-009
   5.0000000000000003E-002   1.6666666666666663E-002   3.9142328116004887E-004   7.2940574127279263E-005  -4.4895238218110219E-005   6.7924315654574743        8.1229853008887853E-010
   5.0000000000000003E-002   5.0000000000000003E-002   3.4929148521113299E-004   1.8534646794579851E-004  -1.9204001378082786E-004   6.8296413972472676        4.5904090771597961E-010
   5.0000000000000003E-002   8.3333333333333329E-002   3.0931107457222664E-004   2.4647309065919628E-004  -4.2863522211509831E-004   6.9302119928716159        3.6293568324297087E-010
   5.0000000000000003E-002  0.11666666666666665        2.7137805019308386E-004   2.7319179637616119E-004  -7.1268812689068844E-004   7.1055411183385271        2.3844238562775733E-010
   5.0000000000000003E-002  0.15000000000000002        2.3538575129659285E-004   2.8389078701803177E-004  -1.0187597829436987E-003   7.3518854437665420        8.6812749697240399E-011
   5.0000000000000003E-002  0.18333333333333335        2.0134164936706948E-004   2.8962434797702799E-004  -1.3345732266107240E-003   7.6555461900977688       -9.0509129704874347E-011
   5.0000000000000003E-002  0.21666666666666667        1.6939331774315638E-004   2.9452859637133140E-004  -1.6551384269021838E-003   7.9997421722877284       -2.9189988273725653E-010
   5.0000000000000003E-002  0.25000000000000000        1.3980018242250899E-004   2.9870764705407238E-004  -1.9778752303782486E-003   8.3699481751091032       -5.1556647492900787E-010
   5.0000000000000003E-002  0.28333333333333333        1.1289316806666938E-004   3.0071951188667396E-004  -2.2999031834286879E-003   8.7562233865176573       -7.5954962805435677E-010
   5.0000000000000003E-002  0.31666666666666665        8.9040569615228643E-005   2.9892580235070228E-004  -2.6170805047033745E-003   9.1529827191204181       -1.0217180851368468E-009
   5.0000000000000003E-002  0.35000000000000003        6.8621104409996564E-005   2.9195640303849587E-004  -2.9239627743159187E-003   9.5575363783757208       -1.2997529424269016E-009
   5.0000000000000003E-002  0.38333333333333336        5.1999599872238506E-005   2.7874526072759853E-004  -3.2140692409547257E-003   9.9685174814379760       -1.5911235575621907E-009
   5.0000000000000003E-002  0.41666666666666669        3.9501999490214856E-005   2.5844781097385759E-004  -3.4801705658985024E-003   10.384713793901795       -1.8930621211235565E-009
   5.0000000000000003E-002  0.45000000000000001        3.1388576305269225E-005   2.3037381974574115E-004  -3.7145249770714861E-003   10.804355790104159       -2.2025480337153902E-009
   5.0000000000000003E-002  0.48333333333333334        2.7825247608347605E-005   1.9397235614929250E-004  -3.9090823350286042E-003   11.224726289633532       -2.5163162014132934E-009
   5.0000000000000003E-002  0.51666666666666661        2.8853062709306121E-005   1.4887223288206328E-004  -4.0557014858425304E-003   11.641951588206117       -2.8308978113067429E-009
   5.0000000000000003E-002  0.54999999999999993        3.4356181763674622E-005   9.4972386486093479E-005  -4.1464249542419902E-003   12.050888977136156       -3.1426919567135309E-009
   5.0000000000000003E-002  0.58333333333333326        4.4029480968278092E-005   3.2571114078593384E-005  -4.1738427803490281E-003   12.445076555403174       -3.4480550208397433E-009
   5.0000000000000003E-002  0.61666666666666659        5.7348370037301216E-005  -3.7484413572676467E-005  -4.1315591614024851E-003   12.816743334943748       -3.7433915685107511E-009
   5.0000000000000003E-002  0.64999999999999991        7.3545244891567109E-005  -1.1365548484523515E-004  -4.0147539158518963E-003   13.156895921398508       -4.0252349734620774E-009
   5.0000000000000003E-002  0.68333333333333324        9.1598730500906713E-005  -1.9361024161320217E-004  -3.8208082997813033E-003   13.455509585515054       -4.2903134543290089E-009
   5.0000000000000003E-002  0.71666666666666656        1.1024278984514073E-004  -2.7419902351713196E-004  -3.5499452227755936E-003   13.701860250680822       -4.5355997534135550E-009
   5.0000000000000003E-002  0.75000000000000000        1.2800206453157946E-004  -3.5153169000817005E-004  -3.2058240503938223E-003   13.885041974280892       -4.7583489301561421E-009
   5.0000000000000003E-002  0.78333333333333333        1.4325682365299246E-004  -4.2114575904383380E-004  -2.7960428163120990E-003   13.994726934418866       -4.9561252549873425E-009
   5.0000000000000003E-002  0.81666666666666665        1.5433574770288167E-004  -4.7816985001410378E-004  -2.3325609206139809E-003   14.022259453781972       -5.1268225914613552E-009
   5.0000000000000003E-002  0.84999999999999998        1.5962927458743596E-004  -5.1721148557072887E-004  -1.8322091997517152E-003   13.962284754745777       -5.2686789375755438E-009
   5.0000000000000003E-002  0.88333333333333330        1.5771485834561565E-004  -5.3134281630634313E-004  -1.3177783045799246E-003   13.815434316515280       -5.3802871793212637E-009
   5.0000000000000003E-002  0.91666666666666663        1.4749484893370431E-004  -5.0882816833682778E-004  -8.2078824362752075E-004   13.593451509097362       -5.4606022880515637E-009
   5.0000000000000003E-002  0.94999999999999996        1.2836742866696930E-004  -4.2476273633774688E-004  -3.8815406541117760E-004   13.330255642137827       -5.5089455219814454E-009
   5.0000000000000003E-002  0.98333333333333317        1.0042173555571999E-004  -2.2232352540597986E-004  -9.7522300375029217E-005   13.107038258936921       -5.5250057046790646E-009
   8.3333333333333329E-002   1.6666666666666663E-002   3.9089226446987379E-004   1.8488405820453159E-004  -6.7048219924976951E-005   7.6216601822570178        7.4375137906063093E-010
   8.3333333333333329E-002   5.0000000000000003E-002   3.4936660422644805E-004   4.3348551898266343E-004  -2.7998593899777614E-004   7.6715542627994582        4.1362520526722069E-010
   8.3333333333333329E-002   8.3333333333333329E-002   3.1026352077764141E-004   5.6981080796588085E-004  -6.1486747307924598E-004   7.8191418740131917        3.2006675435014564E-010
   8.3333333333333329E-002  0.11666666666666665        2.7298846440841325E-004   6.3288052883769797E-004  -1.0138409993995842E-003   8.0838560302945908        1.9889275122697558E-010
   8.3333333333333329E-002  0.15000000000000002        2.3730573104142709E-004   6.5891509985517636E-004  -1.4424823790541367E-003   8.4591301591840420        5.1319219707135488E-011
   8.3333333333333329E-002  0.18333333333333335        2.0325718184217628E-004   6.7002847819785808E-004  -1.8820973796723557E-003   8.9220236903976335       -1.2125900804293988E-010
   8.3333333333333329E-002  0.21666666666666667        1.7106269184456681E-004   6.7514613592240165E-004  -2.3225538628353732E-003   9.4451072487415537       -3.1728657548524275E-010
   8.3333333333333329E-002  0.25000000000000000        1.4104279680972312E-004   6.7520388097868484E-004  -2.7569308604985829E-003   10.005342892204915       -5.3506260359881264E-010
   8.3333333333333329E-002  0.28333333333333333        1.1357120603063602E-004   6.6790318337253381E-004  -3.1785828559073980E-003   10.587584674737695       -7.7274821611017508E-010
   8.3333333333333329E-002  0.31666666666666665        8.9047337700129094E-005   6.5044488895821045E-004  -3.5801083524323670E-003   11.183760729490050       -1.0283613387923607E-009
   8.3333333333333329E-002  0.35000000000000003        6.7875843011358714E-005   6.2055227720012550E-004  -3.9533411210820723E-003   11.790218621309524       -1.2997543232667885E-009
   8.3333333333333329E-002  0.38333333333333336        5.0445159379891360E-005   5.7660809916505967E-004  -4.2896934632957713E-003   12.405148370757344       -1.5845740865272351E-009
   8.3333333333333329E-002  0.41666666666666669        3.7103120503689872E-005   5.1751448243687068E-004  -4.5805217640686666E-003   13.026827517520504       -1.8802121335564914E-009
   8.3333333333333329E-002  0.45000000000000001        2.8130530420332914E-005   4.4255865437003029E-004  -4.8174189949760499E-003   13.652644161545554       -2.1837615648070963E-009
   8.3333333333333329E-002  0.48333333333333334        2.3713639113841881E-005   3.5137214666774335E-004  -4.9924464187388936E-003   14.278604121694094       -2.4920075343548564E-009
   8.3333333333333329E-002  0.51666666666666661        2.3915549932151267E-005   2.4399384190672334E-004  -5.0983488448129357E-003   14.899075326361114       -2.8014698698862472E-009
   8.3333333333333329E-002  0.54999999999999993        2.8646172597074551E-005   1.2102168715125109E-004  -5.1287964841625691E-003   15.506637098224344       -3.1084968986328475E-009
   8.3333333333333329E-002  0.58333333333333326        3.7630946769406997E-005  -1.6173971398962641E-005  -5.0786830917202621E-003   16.091987452564130       -3.4093838537953280E-009
   8.3333333333333329E-002  0.61666666666666659        5.0380175144208072E-005  -1.6521197517966793E-004  -4.9444943019375433E-003   16.643908509067042       -3.7004867755111026E-009
   8.3333333333333329E-002  0.64999999999999991        6.6163110375087417E-005  -3.2248155376295124E-004  -4.7247461744205563E-003   17.149315271452231       -3.9783145076854876E-009
   8.3333333333333329E-002  0.68333333333333324        8.3993422378046513E-005  -4.8299298657555889E-004  -4.4204832521687297E-003   17.593430689300668       -4.2395962573937851E-009
   8.3333333333333329E-002  0.71666666666666656        1.0263461009259212E-004  -6.4034537637227174E-004  -4.0358175238042159E-003   17.960147525747466       -4.4813269518828580E-009
   8.3333333333333329E-002  0.75000000000000000        1.2063440949811106E-004  -7.8683935804948709E-004  -3.5784849832240870E-003   18.232659471176913       -4.7007977458518591E-009
   8.3333333333333329E-002  0.78333333333333333        1.3639538258588396E-004  -9.1370425785728196E-004  -3.0604003722991850E-003   18.394478497883590       -4.8956164434843519E-009
   8.3333333333333329E-002  0.81666666666666665        1.4828424751705274E-004  -1.0112746616376136E-003  -2.4982192915984454E-003   18.431029598665937       -5.0637217405280488E-009
   8.3333333333333329E-002  0.84999999999999998        1.5477613163429607E-004  -1.0686754913887884E-003  -1.9140025393960904E-003   18.332208588707154       -5.2033936291662197E-009
   8.3333333333333329E-002  0.88333333333333330        1.5462519093230006E-004  -1.0720431401095407E-003  -1.3362694577069715E-003   18.096819502615155       -5.3132610949857551E-009
   8.3333333333333329E-002  0.91666666666666663        1.4705534492558196E-004  -9.9930553753853433E-004  -8.0208218476210381E-004   17.741197061724261       -5.3923073922712561E-009
   8.3333333333333329E-002  0.94999999999999996        1.3197549792615053E-004  -8.0761596359560351E-004  -3.6138612988102119E-004   17.317700878603343       -5.4398730468113721E-009
   8.3333333333333329E-002  0.98333333333333317        1.1021333885854368E-004  -4.0566728367434331E-004  -8.5821274882296616E-005   16.956241861156872       -5.4556565532576373E-009
  0.11666666666666665        1.6666666666666663E-002   3.8693715112674172E-004   3.3174083070520646E-004  -7.9808529169748729E-005   8.3941066166623113        6.6060557284836063E-010
  0.11666666666666665        5.0000000000000003E-002   3.4620102283976613E-004   7.5200528097979914E-004  -3.3224730831033037E-004   8.4529034420969467        3.5908362221170886E-010
  0.11666666666666665        8.3333333333333329E-002   3.0790582412075409E-004   9.8126613846435647E-004  -7.2734084403228096E-004   8.6428375012256424        2.6875586651986527E-010
  0.11666666666666665       0.11666666666666665        2.7115162315270800E-004   1.0887803781932824E-003  -1.1957224819074345E-003   8.9922865760364115        1.5179872116244386E-010
  0.11666666666666665       0.15000000000000002        2.3561401965560184E-004   1.1315716058957663E-003  -1.6956374507923993E-003   9.4916323401002458        9.3887207036624787E-012
  0.11666666666666665       0.18333333333333335        2.0136617167665618E-004   1.1440774855283255E-003  -2.2027279671733525E-003   10.107936725175984       -1.5713582518506186E-010
  0.11666666666666665       0.21666666666666667        1.6869948574493708E-004   1.1408581731055924E-003  -2.7020325442237052E-003   10.802372974135652       -3.4630127238033381E-010
  0.11666666666666665       0.25000000000000000        1.3800942196138402E-004   1.1244572198497651E-003  -3.1826209518676643E-003   11.542910989021674       -5.5652342109691055E-010
  0.11666666666666665       0.28333333333333333        1.0973779027324629E-004   1.0925167966968040E-003  -3.6348359528285070E-003   12.308958258879686       -7.8612423515256324E-010
  0.11666666666666665       0.31666666666666665        8.4343936101260758E-005   1.0419175559537208E-003  -4.0493967969660646E-003   13.089811456055628       -1.0333309659327217E-009
  0.11666666666666665       0.35000000000000003        6.2283273003826278E-005   9.7035033165710882E-004  -4.4174348273970888E-003   13.880734020074311       -1.2962475294531206E-009
  0.11666666666666665       0.38333333333333336        4.3984188173068400E-005   8.7652540369594989E-004  -4.7307979400607152E-003   14.679404087940497       -1.5727911976265441E-009
  0.11666666666666665       0.41666666666666669        2.9823037490939578E-005   7.5993764543911765E-004  -4.9823102217905757E-003   15.483646431008724       -1.8605997211679215E-009
  0.11666666666666665       0.45000000000000001        2.0099373694449356E-005   6.2062875238081154E-004  -5.1659063865880398E-003   16.290249657497334       -2.1569356882175650E-009
  0.11666666666666665       0.48333333333333334        1.5012251477824846E-005   4.5908986270932432E-004  -5.2766669317332732E-003   17.094395460058216       -2.4586381611180208E-009
  0.11666666666666665       0.51666666666666661        1.4636558304742400E-005   2.7632226887837124E-004  -5.3108108239105344E-003   17.889351700992627       -2.7621688790391286E-009
  0.11666666666666665       0.54999999999999993        1.8897540404874369E-005   7.4030457316590271E-005  -5.2657005772960494E-003   18.666260534979148       -3.0637540052690093E-009
  0.11666666666666665       0.58333333333333326        2.7542454670989160E-005  -1.4509394224590421E-004  -5.1399029847433407E-003   19.413967984037203       -3.3595604163189074E-009
  0.11666666666666665       0.61666666666666659        4.0110375237312739E-005  -3.7704594218346146E-004  -4.9333380719299817E-003   20.118896952775529       -3.6458484217738452E-009
  0.11666666666666665       0.64999999999999991        5.5904188863868540E-005  -6.1619206167811129E-004  -4.6475419785901601E-003   20.764993120086537       -3.9190789623971822E-009
  0.11666666666666665       0.68333333333333324        7.3972183037155964E-005  -8.5502351971033911E-004  -4.2860641316748412E-003   21.333795763601064       -4.1759779592642765E-009
  0.11666666666666665       0.71666666666666656        9.3109654726162032E-005  -1.0840351610045687E-003  -3.8550098307801412E-003   21.804716611363467       -4.4135706669251595E-009
  0.11666666666666665       0.75000000000000000        1.1189265739050132E-004  -1.2917716878609368E-003  -3.3637205606647678E-003   22.155658769775098       -4.6291993086033933E-009
  0.11666666666666665       0.78333333333333333        1.2875507738759593E-004  -1.4650229337237627E-003  -2.8255544833475023E-003   22.364188480278930       -4.8205322858430044E-009
  0.11666666666666665       0.81666666666666665        1.4211545059097491E-004  -1.5889945473759961E-003  -2.2586973318673847E-003   22.409619310587576       -4.9855698978917840E-009
  0.11666666666666665       0.84999999999999998        1.5055110127475314E-004  -1.6469460742510038E-003  -1.6869239550580443E-003   22.276676970133408       -5.1226489126976471E-009
  0.11666666666666665       0.88333333333333330        1.5300691404736142E-004  -1.6181488580744384E-003  -1.1402810837492186E-003   21.962132070406760       -5.2304464821795182E-009
  0.11666666666666665       0.91666666666666663        1.4902145893837075E-004  -1.4718781476602623E-003  -6.5579038267409820E-004   21.487493334785899       -5.3079832959546103E-009
  0.11666666666666665       0.94999999999999996        1.3896433509513138E-004  -1.1531841703001009E-003  -2.7834597897543830E-004   20.924682988605699       -5.3546252501424085E-009
  0.11666666666666665       0.98333333333333317        1.2430161536392673E-004  -5.5274950513348002E-004  -6.1260766147836938E-005   20.449322896942846       -5.3700836364495297E-009
  0.15000000000000002        1.6666666666666663E-002   3.7898113970449035E-004   4.9552766985646809E-004  -8.3978289578582645E-005   9.1119899027615130        5.6357024342396089E-010
  0.15000000000000002        5.0000000000000003E-002   3.3929883701721577E-004   1.1078792812520282E-003  -3.5120031854273508E-004   9.1758420952290365        2.9586596540787102E-010
  0.15000000000000002        8.3333333333333329E-002   3.0179338280776977E-004   1.4401856857107543E-003  -7.7090031145401311E-004   9.4007739100925463        2.0941844265653931E-010
  0.15000000000000002       0.11666666666666665        2.6542921640720766E-004   1.5950832822664008E-003  -1.2677411127731998E-003   9.8244929950867093        9.7537531870695027E-011
  0.15000000000000002       0.15000000000000002        2.2987718546427696E-004   1.6518945304610602E-003  -1.7944519688585076E-003   10.434650109334862       -3.8636614740905628E-011
  0.15000000000000002       0.18333333333333335        1.9527900249317933E-004   1.6581998861864289E-003  -2.3218067841043483E-003   11.188539588408293       -1.9782007976143490E-010
  0.15000000000000002       0.21666666666666667        1.6201775411712660E-004   1.6350765863872006E-003  -2.8308430389917252E-003   12.036017539783145       -3.7862389092035986E-010
  0.15000000000000002       0.25000000000000000        1.3058115250180115E-004   1.5878046954316447E-003  -3.3078205512286447E-003   12.935933267442122       -5.7959483566738523E-010
  0.15000000000000002       0.28333333333333333        1.0149595810643550E-004   1.5152564717724980E-003  -3.7416927462835892E-003   13.861925811513640       -7.9925033952266133E-010
  0.15000000000000002       0.31666666666666665        7.5294106863549179E-005   1.4153032791523702E-003  -4.1232573613336695E-003   14.800260763852311       -1.0360921426366687E-009
  0.15000000000000002       0.35000000000000003        5.2485963504476239E-005   1.2868202247993839E-003  -4.4450750248143846E-003   15.744805058217949       -1.2885781885962899E-009
  0.15000000000000002       0.38333333333333336        3.3533841425282788E-005   1.1298854526621480E-003  -4.7015419494700148E-003   16.692637306889694       -1.5550301211628148E-009
  0.15000000000000002       0.41666666666666669        1.8827746676721478E-005   9.4539670609508001E-004  -4.8888488910605009E-003   17.641335617850135       -1.8334701430700040E-009
  0.15000000000000002       0.45000000000000001        8.6656945666233619E-006   7.3469992220049892E-004  -5.0047830896124959E-003   18.587596243549182       -2.1214230112170940E-009
  0.15000000000000002       0.48333333333333334        3.2379012570353905E-006   4.9942469992112230E-004  -5.0484287040450347E-003   19.526558742188325       -2.4157803426953783E-009
  0.15000000000000002       0.51666666666666661        2.6115924848545918E-006   2.4154776257947453E-004  -5.0198453152712850E-003   20.451412435636286       -2.7128492308473029E-009
  0.15000000000000002       0.54999999999999993        6.7126106644233009E-006  -3.6353778109561805E-005  -4.9197970126169735E-003   21.353090795157719       -3.0086029709219808E-009
  0.15000000000000002       0.58333333333333326        1.5301426630723694E-005  -3.3071352258518395E-004  -4.7495910015857342E-003   22.219994673439210       -3.2989716895748256E-009
  0.15000000000000002       0.61666666666666659        2.7944030073556410E-005  -6.3650768986495089E-004  -4.5110748177856139E-003   23.037742123739637       -3.5800568082972051E-009
  0.15000000000000002       0.64999999999999991        4.3981910397815123E-005  -9.4676556540360644E-004  -4.2068359096056711E-003   23.788967614746841       -3.8482490700986194E-009
  0.15000000000000002       0.68333333333333324        6.2509443726910461E-005  -1.2521227981779316E-003  -3.8406412417209450E-003   24.453219663436812       -4.1002765505809835E-009
  0.15000000000000002       0.71666666666666656        8.2370881420433059E-005  -1.5404929897743815E-003  -3.4181387190955707E-003   25.007054458305589       -4.3332146655583603E-009
  0.15000000000000002       0.75000000000000000        1.0219180847793882E-004  -1.7969356373099439E-003  -2.9478065096665627E-003   25.424510964921996       -4.5444816850620517E-009
  0.15000000000000002       0.78333333333333333        1.2045975894622130E-004  -2.0037588644289902E-003  -2.4420730189303342E-003   25.678300049888954       -4.7318311560684556E-009
  0.15000000000000002       0.81666666666666665        1.3566346025534271E-004  -2.1407489951477412E-003  -1.9184401157881456E-003   25.742282470475260       -4.8933466410827631E-009
  0.15000000000000002       0.84999999999999998        1.4648837508948696E-004  -2.1850627966202157E-003  -1.4003426562732781E-003   25.596237523254853       -5.0274395202443145E-009
  0.15000000000000002       0.88333333333333330        1.5204964656594593E-004  -2.1096152185322869E-003  -9.1740278664477384E-004   25.234758259195225       -5.1328489306112779E-009
  0.15000000000000002       0.91666666666666663        1.5213121334132801E-004  -1.8776100661703344E-003  -5.0469555675066780E-004   24.683825450674018       -5.2086429353642716E-009
  0.15000000000000002       0.94999999999999996        1.4740840157427369E-004  -1.4291613765407560E-003  -2.0043118778978109E-004   24.031978067625552       -5.2542193564736328E-009
  0.15000000000000002       0.98333333333333317        1.3966903480767005E-004  -6.5414975112595248E-004  -4.0139302521483622E-005   23.488613060184655       -5.2693054771943415E-009
  0.18333333333333335        1.6666666666666663E-002   3.6699282933156508E-004   6.6026606518499917E-004  -8.0760088800417370E-005   9.7813657434551438        4.5340161920065514E-010
  0.18333333333333335        5.0000000000000003E-002   3.2861491894525926E-004   1.4707449355272546E-003  -3.4114208381867906E-004   9.8459456701325756        2.2444275951660764E-010
  0.18333333333333335        8.3333333333333329E-002   2.9191847756731193E-004   1.9101960850695908E-003  -7.5431813000471806E-004   10.095759426798061        1.4247756967289416E-010
  0.18333333333333335       0.11666666666666665        2.5587971393356974E-004   2.1124687996085206E-003  -1.2448732372879693E-003   10.577928065853790        3.6477584841598798E-011
  0.18333333333333335       0.15000000000000002        2.2024825286914130E-004   2.1787659490057564E-003  -1.7624193170405189E-003   11.278319474913582       -9.2440988891384634E-011
  0.18333333333333335       0.18333333333333335        1.8527951692754366E-004   2.1703392588334597E-003  -2.2740753025185887E-003   12.145661064365978       -2.4303330875552476E-010
  0.18333333333333335       0.21666666666666667        1.5147350614362203E-004   2.1159442057379478E-003  -2.7580460601866206E-003   13.119352745531096       -4.1398055643238063E-010
  0.18333333333333335       0.25000000000000000        1.1942373018364202E-004   2.0250924217497337E-003  -3.1992239265544488E-003   14.149358521545931       -6.0395540131541470E-010
  0.18333333333333335       0.28333333333333333        8.9745388973867861E-005   1.8994272328328283E-003  -3.5868102654527528E-003   15.203277978194617       -8.1168917941132346E-010
  0.18333333333333335       0.31666666666666665        6.3035876396021816E-005   1.7391896999720486E-003  -3.9133028936668996E-003   16.263915746337020       -1.0360215099008974E-009
  0.18333333333333335       0.35000000000000003        3.9843253884473941E-005   1.5455345624599531E-003  -4.1740860659428645E-003   17.323479230416915       -1.2758940258483786E-009
  0.18333333333333335       0.38333333333333336        2.0639071805001656E-005   1.3206594491078979E-003  -4.3671075695558472E-003   18.378523758099981       -1.5302353134627467E-009
  0.18333333333333335       0.41666666666666669        5.7990776872900759E-006   1.0672549483896261E-003  -4.4924329786461027E-003   19.426823654269988       -1.7976911235659254E-009