 TITLE = "Cavity_simu"
 Variables="X","Y","P","U","V","T","div"
 Zone I=          30 , J=          30 , F = POINT
   1.6666666666666663E-002   1.6666666666666663E-002   3.4692574102109007E-004   1.4078383841634021E-005  -1.4078197020605022E-005   5.8625515877936776        1.1209261739945561E-008
   1.6666666666666663E-002   5.0000000000000003E-002   3.0399978964416012E-004   4.0746267969118804E-005  -6.8902523149084761E-005   5.8962205433464865        8.3316746449062229E-009
   1.6666666666666663E-002   8.3333333333333329E-002   2.6319182547167221E-004   5.5235947990732181E-005  -1.6488446302319088E-004   5.9723887125299555        8.2334700468068844E-009
   1.6666666666666663E-002  0.11666666666666665        2.2499868795360485E-004   6.1611104862453861E-005  -2.8173124355108454E-004   6.0951136251661451        8.1060474977322217E-009
   1.6666666666666663E-002  0.15000000000000002        1.8939046594028999E-004   6.4594763665899152E-005  -4.0793684445067271E-004   6.2623682138514045        7.9516783921262935E-009
   1.6666666666666663E-002  0.18333333333333335        1.5631557707459598E-004   6.6854137273117943E-005  -5.3938548330968359E-004   6.4675791707349584        7.7731219776805416E-009
   1.6666666666666663E-002  0.21666666666666667        1.2586617275779115E-004   6.9253582647941066E-005  -6.7549294745237283E-004   6.7021964661494895        7.5735802091553284E-009
   1.6666666666666663E-002  0.25000000000000000        9.8280006387880135E-005   7.1644779509339856E-005  -8.1639106077277535E-004   6.9579404189844460        7.3566324950216644E-009
   1.6666666666666663E-002  0.28333333333333333        7.3889362566544045E-005   7.3495529936043629E-005  -9.6153112883853886E-004   7.2279962578215606        7.1261447029749569E-009
   1.6666666666666663E-002  0.31666666666666665        5.3066805965219155E-005   7.4236424061165413E-005  -1.1092628492975194E-003   7.5071710891568300        6.8861490086502553E-009
   1.6666666666666663E-002  0.35000000000000003        3.6180733809697410E-005   7.3400884096815907E-005  -1.2568999320080876E-003   7.7914679572962369        6.6406957745235307E-009
   1.6666666666666663E-002  0.38333333333333336        2.3558958557983358E-005   7.0661655920848445E-005  -1.4009622547860464E-003   8.0775501707880828        6.3936865576236235E-009
   1.6666666666666663E-002  0.41666666666666669        1.5456820205840166E-005   6.5828647151121395E-005  -1.5374523488181247E-003   8.3623553879439481        6.1487069403023953E-009
   1.6666666666666663E-002  0.45000000000000001        1.2028726487119163E-005   5.8833563217060660E-005  -1.6621143582264332E-003   8.6429028607498051        5.9088854707615990E-009
   1.6666666666666663E-002  0.48333333333333334        1.3303741265664679E-005   4.9708550080970783E-005  -1.7706562784296056E-003   8.9162264818110391        5.6768060703593637E-009
   1.6666666666666663E-002  0.51666666666666661        1.9165986281008334E-005   3.8563404475008801E-005  -1.8589280474639665E-003   9.1793521520945074        5.4544910484989606E-009
   1.6666666666666663E-002  0.54999999999999993        2.9340031646990645E-005   2.5567326428878463E-005  -1.9230586000687929E-003   9.4292693314424341        5.2434526167603052E-009
   1.6666666666666663E-002  0.58333333333333326        4.3381051482553575E-005   1.0940325075413657E-005  -1.9595660801023460E-003   9.6628832041673967        5.0447917030859574E-009
   1.6666666666666663E-002  0.61666666666666659        6.0669715530758618E-005  -5.0446462220518275E-006  -1.9654615938872761E-003   9.8769590541345078        4.8593142275852111E-009
   1.6666666666666663E-002  0.64999999999999991        8.0412436628964865E-005  -2.2053316479929788E-005  -1.9383634720694029E-003   10.068082562583649        4.6876392481229323E-009
   1.6666666666666663E-002  0.68333333333333324        1.0164817308659281E-004  -3.9684814270079127E-005  -1.8766251876873624E-003   10.232661939750175        4.5302826581251898E-009
   1.6666666666666663E-002  0.71666666666666656        1.2326278322275072E-004  -5.7480510754808427E-005  -1.7794597140292348E-003   10.366993110694061        4.3877117416810107E-009
   1.6666666666666663E-002  0.75000000000000000        1.4401029032368046E-004  -7.4953705812024344E-005  -1.6470253533276715E-003   10.467400392020549        4.2603720898370945E-009
   1.6666666666666663E-002  0.78333333333333333        1.6253706160201096E-004  -9.1632227262312694E-005  -1.4804392801022427E-003   10.530457762789096        4.1486934087772709E-009
   1.6666666666666663E-002  0.81666666666666665        1.7740039229138799E-004  -1.0707319637488402E-004  -1.2817337197688098E-003   10.553304945671471        4.0530807599026275E-009
   1.6666666666666663E-002  0.84999999999999998        1.8706943768665411E-004  -1.2074082183508956E-004  -1.0539195677758606E-003   10.534136604337434        3.9738977924280716E-009
   1.6666666666666663E-002  0.88333333333333330        1.8989907933787272E-004  -1.3148951283342480E-004  -8.0168910168493387E-004   10.473153834864965        3.9114469406464902E-009
   1.6666666666666663E-002  0.91666666666666663        1.8408904590627725E-004  -1.3604815070556139E-004  -5.3415130852266484E-004   10.374829567055853        3.8659500305876504E-009
   1.6666666666666663E-002  0.94999999999999996        1.6771738775399567E-004  -1.2508900547463270E-004  -2.7301402395110415E-004   10.253655116497699        3.8375319692807164E-009
   1.6666666666666663E-002  0.98333333333333317        1.3917688603063140E-004  -7.3962413488657167E-005  -7.3962477258802636E-005   10.148011245321989        3.8262087274573697E-009
   5.0000000000000003E-002   1.6666666666666663E-002   3.4838255259768658E-004   7.1299592842975865E-005  -4.3142685915965168E-005   6.6968214163829645        8.3546245585770784E-009
   5.0000000000000003E-002   5.0000000000000003E-002   3.0633475727232765E-004   1.7948176319832320E-004  -1.8427450726610253E-004   6.7613075467973340        5.5095548045711040E-009
   5.0000000000000003E-002   8.3333333333333329E-002   2.6659879812786366E-004   2.4026353679279687E-004  -4.1205519282446206E-004   6.9133874365268415        5.4412287106564428E-009
   5.0000000000000003E-002  0.11666666666666665        2.2915461100886687E-004   2.6973938385463033E-004  -6.8836382785004242E-004   7.1626865055583586        5.3536997769026984E-009
   5.0000000000000003E-002  0.15000000000000002        1.9396807663075647E-004   2.8448391285218710E-004  -9.9017521079634483E-004   7.5045311481059800        5.2485287591746976E-009
   5.0000000000000003E-002  0.18333333333333335        1.6109260018101475E-004   2.9429740237593862E-004  -1.3060585512108514E-003   7.9241097821095909        5.1276063343236311E-009
   5.0000000000000003E-002  0.21666666666666667        1.3069790731412865E-004   3.0265616253334062E-004  -1.6307965075991059E-003   8.4025683642108167        4.9931280707293801E-009
   5.0000000000000003E-002  0.25000000000000000        1.0305032195893538E-004   3.0921944914361304E-004  -1.9608752309501062E-003   8.9221176436841105        4.8475554265126064E-009
   5.0000000000000003E-002  0.28333333333333333        7.8478860880210668E-005   3.1209585501534100E-004  -2.2919097571997534E-003   9.4685420354099801        4.6935569510825337E-009
   5.0000000000000003E-002  0.31666666666666665        5.7342681589006590E-005   3.0922460376696278E-004  -2.6177661541962752E-003   10.031301941349762        4.5339248778974994E-009
   5.0000000000000003E-002  0.35000000000000003        4.0001092415541771E-005   2.9899804106673478E-004  -2.9307140342908393E-003   10.602419738483585        4.3714653702453532E-009
   5.0000000000000003E-002  0.38333333333333336        2.6783176513988224E-005   2.8044697503046582E-004  -3.2220338273471652E-003   11.175265991836875        4.2088674073736954E-009
   5.0000000000000003E-002  0.41666666666666669        1.7956093482302166E-005   2.5322627697331018E-004  -3.4827263355831205E-003   11.743774626126434        4.0485654403607518E-009
   5.0000000000000003E-002  0.45000000000000001        1.3693915585856693E-005   2.1751603003365371E-004  -3.7041440895006104E-003   12.302103707230827        3.8926211550979750E-009
   5.0000000000000003E-002  0.48333333333333334        1.4049847597667084E-005   1.7388992239421037E-004  -3.8784656880778328E-003   12.844542647139459        3.7426536002305166E-009
   5.0000000000000003E-002  0.51666666666666661        1.8933943913238519E-005   1.2318636276477027E-004  -3.9989979417499964E-003   13.365476075164301        3.5998378848135781E-009
   5.0000000000000003E-002  0.54999999999999993        2.8097047529854840E-005   6.6412916661996919E-005  -4.0603356416222154E-003   13.859306083456712        3.4649685053686832E-009
   5.0000000000000003E-002  0.58333333333333326        4.1120610560900652E-005   4.7025401932998919E-006  -4.0584356820767701E-003   14.320317602800250        3.3385609706469699E-009
   5.0000000000000003E-002  0.61666666666666659        5.7411817543428568E-005  -6.0679562477444178E-005  -3.9906671927605799E-003   14.742519819245411        3.2209583368525418E-009
   5.0000000000000003E-002  0.64999999999999991        7.6203991565168260E-005  -1.2829991870725723E-004  -3.8558835314235502E-003   15.119515014360898        3.1124191947687341E-009
   5.0000000000000003E-002  0.68333333333333324        9.6563143761485765E-005  -1.9652677248964618E-004  -3.6545329996333933E-003   15.444446033501531        3.0131770741709252E-009
   5.0000000000000003E-002  0.71666666666666656        1.1740199828485061E-004  -2.6354186537754372E-004  -3.3887949128718364E-003   15.710062314419982        2.9234714510328885E-009
   5.0000000000000003E-002  0.75000000000000000        1.3750218308950299E-004  -3.2740946026708120E-004  -3.0627119242437346E-003   15.908927024582798        2.8435571067936261E-009
   5.0000000000000003E-002  0.78333333333333333        1.5554323506947323E-004  -3.8616393849893354E-004  -2.6823102980054678E-003   16.033773190436726        2.7736984375970053E-009
   5.0000000000000003E-002  0.81666666666666665        1.7013432848273389E-004  -4.3776567595453525E-004  -2.2557914393621595E-003   16.078031476932445        2.7141555392073968E-009
   5.0000000000000003E-002  0.84999999999999998        1.7984374842827658E-004  -4.7955721091321482E-004  -1.7940964992589816E-003   16.036673089091760        2.6651669777361109E-009
   5.0000000000000003E-002  0.88333333333333330        1.8322771845056269E-004  -5.0641773524524793E-004  -1.3125821342358911E-003   15.907940403602618        2.6269324077121681E-009
   5.0000000000000003E-002  0.91666666666666663        1.7888386379213338E-004  -5.0589933923116093E-004  -8.3534029972862696E-004   15.697787112843125        2.5995972510045595E-009
   5.0000000000000003E-002  0.94999999999999996        1.6560292245394246E-004  -4.4663314683781295E-004  -4.0508203963941314E-004   15.432171564198793        2.5832404357967187E-009
   5.0000000000000003E-002  0.98333333333333317        1.4271555814043200E-004  -2.5223821436130953E-004  -1.0431343034842915E-004   15.190512938543064        2.5778660386888141E-009
   8.3333333333333329E-002   1.6666666666666663E-002   3.4762911168243247E-004   1.7716673840126315E-004  -6.2724182130172046E-005   7.4846941223853483        8.2961044457763311E-009
   8.3333333333333329E-002   5.0000000000000003E-002   3.0620910643072382E-004   4.1456488064282784E-004  -2.6254216328742839E-004   7.5761519229813192        5.4694400831306611E-009
   8.3333333333333329E-002   8.3333333333333329E-002   2.6732940457436762E-004   5.4958304464348712E-004  -5.7916373933013384E-004   7.8011407853097898        5.4014241985395062E-009
   8.3333333333333329E-002  0.11666666666666665        2.3054245319633856E-004   6.1853959026359406E-004  -9.6097446005580873E-004   8.1761760912003307        5.3141512353777065E-009
   8.3333333333333329E-002  0.15000000000000002        1.9569840689139033E-004   6.5359797851339760E-004  -1.3770769970871694E-003   8.6933569973669904        5.2091708776375034E-009
   8.3333333333333329E-002  0.18333333333333335        1.6287288571234214E-004   6.7398659649687534E-004  -1.8099965718934184E-003   9.3280424532691217        5.0883775300908374E-009
   8.3333333333333329E-002  0.21666666666666667        1.3228859886842790E-004   6.8691346404392345E-004  -2.2492047750848655E-003   10.049362693703758        4.9539971500034419E-009
   8.3333333333333329E-002  0.25000000000000000        1.0425633286381607E-004   6.9208258816485819E-004  -2.6862461655450054E-003   10.828797143205678        4.8085606173947637E-009
   8.3333333333333329E-002  0.28333333333333333        7.9138679699722911E-005   6.8610083339579425E-004  -3.1120794399549247E-003   11.644135454921617        4.6548548973679438E-009
   8.3333333333333329E-002  0.31666666666666665        5.7326285151141048E-005   6.6533956235264701E-004  -3.5163426736215717E-003   12.479345951145007        4.4958413953494203E-009
   8.3333333333333329E-002  0.35000000000000003        3.9214113433371428E-005   6.2728596143706592E-004  -3.8877973768869341E-003   13.322563499069396        4.3345336712269367E-009
   8.3333333333333329E-002  0.38333333333333336        2.5171082174792863E-005   5.7092712332179303E-004  -4.2152453676805885E-003   14.164108946510575        4.1738342886066260E-009
   8.3333333333333329E-002  0.41666666666666669        1.5504044150893139E-005   4.9664043999018428E-004  -4.4884468966259273E-003   14.995317595071000        4.0163472599802352E-009
   8.3333333333333329E-002  0.45000000000000001        1.0421547906795740E-005   4.0586830781833634E-004  -4.6987953198143577E-003   15.808084441026152        3.8642043584044550E-009
   8.3333333333333329E-002  0.48333333333333334        1.0003035064737283E-005   3.0073446016425651E-004  -4.8396702831512168E-003   16.594743310215179        3.7189597252434980E-009
   8.3333333333333329E-002  0.51666666666666661        1.4176665903245127E-005   1.8370781471424542E-004  -4.9065037751478153E-003   17.347976005120017        3.5815943286252733E-009
   8.3333333333333329E-002  0.54999999999999993        2.2705914506207788E-005   5.7383893677404678E-005  -4.8966582692566655E-003   18.060620533639455        3.4526280994363195E-009
   8.3333333333333329E-002  0.58333333333333326        3.5183020390623684E-005  -7.5589607085148656E-005  -4.8092368320650364E-003   18.725375457225674        3.3322844175849575E-009
   8.3333333333333329E-002  0.61666666666666659        5.1027038749719143E-005  -2.1246246219465040E-004  -4.6449300558447371E-003   19.334458833957715        3.2206463572437283E-009
   8.3333333333333329E-002  0.64999999999999991        6.9485470273421201E-005  -3.5026226910039507E-004  -4.4059682558748505E-003   19.879297400439405        3.1177705070439821E-009
   8.3333333333333329E-002  0.68333333333333324        8.9640539803652612E-005  -4.8567843440532239E-004  -4.0962045709042258E-003   20.350317436206545        3.0237512372438546E-009
   8.3333333333333329E-002  0.71666666666666656        1.1042310804050238E-004  -6.1501492241712542E-004  -3.7213177403914634E-003   20.736896313005907        2.9387438992695136E-009
   8.3333333333333329E-002  0.75000000000000000        1.3063795254190740E-004  -7.3423403659321756E-004  -3.2891029028416265E-003   21.027520526983601        2.8629608267438655E-009
   8.3333333333333329E-002  0.78333333333333333        1.4900314321695664E-004  -8.3901585320246802E-004  -2.8098278501024112E-003   21.210194364180268        2.7966522656713844E-009
   8.3333333333333329E-002  0.81666666666666665        1.6420378279466110E-004  -9.2456800648391731E-004  -2.2966922797696718E-003   21.273192192478696        2.7400816268730033E-009
   8.3333333333333329E-002  0.84999999999999998        1.7495858625212545E-004  -9.8456943399558819E-004  -1.7665724860460306E-003   21.206463070174838        2.6934996941174738E-009
   8.3333333333333329E-002  0.88333333333333330        1.8010173753709170E-004  -1.0079873210160465E-003  -1.2415048648372683E-003   21.004691982024077        2.6571217726090168E-009
   8.3333333333333329E-002  0.91666666666666663        1.7870112180365022E-004  -9.7129550980730082E-004  -7.5178076775158969E-004   20.674980326264990        2.6311088134611804E-009
   8.3333333333333329E-002  0.94999999999999996        1.7027595714621841E-004  -8.2124811880685314E-004  -3.4202771147063150E-004   20.257170391619937        2.6155530206961597E-009
   8.3333333333333329E-002  0.98333333333333317        1.5521781785786057E-004  -4.3848547413629399E-004  -8.1933915898794256E-005   19.876915940867455        2.6104682937858059E-009
  0.11666666666666665        1.6666666666666663E-002   3.4361454794728911E-004   3.1264667854441535E-004  -7.2755482669376639E-005   8.2189300676738615        8.2245117643403587E-009
  0.11666666666666665        5.0000000000000003E-002   3.0301529408337393E-004   7.1067716496897668E-004  -3.0452926913477447E-004   8.3331255480228332        5.4207425128488529E-009
  0.11666666666666665        8.3333333333333329E-002   2.6492284665891535E-004   9.3681012833402000E-004  -6.7124670036652987E-004   8.6245419747396337        5.3529264649326835E-009
  0.11666666666666665       0.11666666666666665        2.2865040156141642E-004   1.0539378376923651E-003  -1.1120609551900679E-003   9.1171408741679354        5.2657035728292945E-009
  0.11666666666666665       0.15000000000000002        1.9397443525791383E-004   1.1118798249662269E-003  -1.5896381628798814E-003   9.7994506941749115        5.1605998953319077E-009
  0.11666666666666665       0.18333333333333335        1.6099097342731219E-004   1.1399892237560843E-003  -2.0810027201581139E-003   10.636154851592735        5.0395051118257150E-009
  0.11666666666666665       0.21666666666666667        1.2997658175191310E-004   1.1496299459097616E-003  -2.5705132929824169E-003   11.583436596666136        4.9046780508515964E-009
  0.11666666666666665       0.25000000000000000        1.0130390832588245E-004   1.1410447971778343E-003  -3.0451502696347971E-003   12.601312190112669        4.7587418536970683E-009
  0.11666666666666665       0.28333333333333333        7.5401192929866112E-005   1.1100571960769947E-003  -3.4922352531388387E-003   13.659124864038310        4.6046555561563007E-009
  0.11666666666666665       0.31666666666666665        5.2728593543767955E-005   1.0524797081568678E-003  -3.8990682246076965E-003   14.735154342624179        4.4456431470135671E-009
  0.11666666666666665       0.35000000000000003        3.3750269453262553E-005   9.6615455304930697E-004  -4.2536219660741729E-003   15.813699567190319        4.2850591790155601E-009
  0.11666666666666665       0.38333333333333336        1.8895591921419439E-005   8.5139986417921546E-004  -4.5455150257567674E-003   16.882368203794933        4.1261777553730505E-009
  0.11666666666666665       0.41666666666666669        8.5147544705696936E-006   7.1062186056232771E-004  -4.7667673867697220E-003   17.930551306291186        3.9719169880186866E-009
  0.11666666666666665       0.45000000000000001        2.8384492752808138E-006   5.4759753281865674E-004  -4.9121293478699962E-003   18.948842120948846        3.8245569701673976E-009
  0.11666666666666665       0.48333333333333334        1.9490345420102458E-006   3.6673800964486506E-004  -4.9789869074594543E-003   19.928833698939485        3.6855556724991329E-009
  0.11666666666666665       0.51666666666666661        5.7653343115276974E-006   1.7252425615992462E-004  -4.9669731640279158E-003   20.862900979937546        3.5555638650333621E-009
  0.11666666666666665       0.54999999999999993        1.4038355016145965E-005  -3.0788047270295348E-005  -4.8774629366766069E-003   21.743823944129186        3.4346400073007044E-009
  0.11666666666666665       0.58333333333333326        2.6352830056446382E-005  -2.3918546340669927E-004  -4.7131163508974776E-003   22.564267272409861        3.3225379166695879E-009
  0.11666666666666665       0.61666666666666659        4.2130097203472225E-005  -4.4869720656327957E-004  -4.4775923081873305E-003   23.316194507499784        3.2189473812144209E-009
  0.11666666666666665       0.64999999999999991        6.0630690576789242E-005  -6.5508353604657062E-004  -4.1754978854923238E-003   23.990304771532735        3.1236410940466142E-009
  0.11666666666666665       0.68333333333333324        8.0958927115557726E-005  -8.5352944047553149E-004  -3.8125890924182730E-003   24.575573532126505        3.0365345619898232E-009
  0.11666666666666665       0.71666666666666656        1.0207530546402999E-004  -1.0384427206325568E-003  -3.3961969193667613E-003   25.058975437656947        2.9576883008725074E-009
  0.11666666666666665       0.75000000000000000        1.2282444973850986E-004  -1.2033976404965435E-003  -2.9358201606866589E-003   25.425478378535331        2.8872779497118861E-009
  0.11666666666666665       0.78333333333333333        1.4198564340266675E-004  -1.3411425581844702E-003  -2.4438047149998032E-003   25.658440491873158        2.8255535289983813E-009
  0.11666666666666665       0.81666666666666665        1.5834942091244269E-004  -1.4433538279126209E-003  -1.9360275733370856E-003   25.740664131871227        2.7727976355945705E-009
  0.11666666666666665       0.84999999999999998        1.7081861561892350E-004  -1.4993887677108584E-003  -1.4325420296556267E-003   25.656702065178063        2.7292886301683028E-009
  0.11666666666666665       0.88333333333333330        1.7853062734920634E-004  -1.4925426884178248E-003  -9.5823477016099366E-004   25.397930107627243        2.6952707114780150E-009
  0.11666666666666665       0.91666666666666663        1.8101016279356287E-004  -1.3910503184266080E-003  -5.4364851365171934E-004   24.974225736396626        2.6709307422018158E-009
  0.11666666666666665       0.94999999999999996        1.7840362694293568E-004  -1.1289640232267539E-003  -2.2593068066056264E-004   24.441524552026426        2.6563818297797859E-009
  0.11666666666666665       0.98333333333333317        1.7191420240363035E-004  -5.6860658635713573E-004  -4.8187284024061924E-005   23.965974777222506        2.6516525763325971E-009
  0.15000000000000002        1.6666666666666663E-002   3.3598959581880529E-004   4.5986905334200725E-004  -7.4466619363614244E-005   8.8985859788206536        8.1413642962629984E-009
  0.15000000000000002        5.0000000000000003E-002   2.9646994863828912E-004   1.0348664463201043E-003  -3.1410403652819675E-004   9.0306184240728395        5.3645057805640217E-009
  0.15000000000000002        8.3333333333333329E-002   2.5915182994368675E-004   1.3611348811624626E-003  -6.9590028222692038E-004   9.3780205917807340        5.2967707216827753E-009
  0.15000000000000002       0.11666666666666665        2.2326963011573016E-004   1.5295480835730759E-003  -1.1550206740330075E-003   9.9721312956079284        5.2093709276834765E-009
  0.15000000000000002       0.15000000000000002        1.8860463988307354E-004   1.6081936275275663E-003  -1.6493671691276246E-003   10.798055317364573        5.1037827540623137E-009
  0.15000000000000002       0.18333333333333335        1.5530988993792198E-004   1.6368774111775450E-003  -2.1512042637363196E-003   11.809979106767651        4.9818645771193548E-009
  0.15000000000000002       0.21666666666666667        1.2373962934119216E-004   1.6317195675811347E-003  -2.6406711704725638E-003   12.951209354340023        4.8458894709446643E-009
  0.15000000000000002       0.25000000000000000        9.4352504397414929E-005   1.5945452061770669E-003  -3.1016239043593690E-003   14.170198387137589        4.6985758183487603E-009
  0.15000000000000002       0.28333333333333333        6.7667336545403363E-005   1.5218197407298620E-003  -3.5198015644229011E-003   15.427637690023442        4.5430983454386453E-009
  0.15000000000000002       0.31666666666666665        4.4233012941977820E-005   1.4104355605538308E-003  -3.8826866903964351E-003   16.695986058493702        4.3830492499341567E-009
  0.15000000000000002       0.35000000000000003        2.4588954044061762E-005   1.2602205071023747E-003  -4.1801544664456982E-003   17.955843924938168        4.2223058781959422E-009
  0.15000000000000002       0.38333333333333336        9.2142116431237454E-006   1.0742190194240712E-003  -4.4051462377559776E-003   19.192634514143073        4.0647601499965713E-009
  0.15000000000000002       0.41666666666666669       -1.5234201284007417E-006   8.5784769679732374E-004  -4.5539386002769987E-003   20.394736896793098        3.9138976369763878E-009
  0.15000000000000002       0.45000000000000001       -7.4054471593622005E-006   6.1769908875174964E-004  -4.6259037733002249E-003   21.552709879748356        3.7723037031329315E-009
  0.15000000000000002       0.48333333333333334       -8.3814221261029542E-006   3.6046619923472246E-004  -4.6228757105050994E-003   22.658910483119993        3.6413008188112411E-009
  0.15000000000000002       0.51666666666666661       -4.5701230674743330E-006   9.2242362399179366E-005  -4.5483355097092198E-003   23.707061163982367        3.5209714059278308E-009
  0.15000000000000002       0.54999999999999993        3.7495326072977194E-006  -1.8171704336177158E-004  -4.4066346151786480E-003   24.691625739344857        3.4106042486742316E-009
  0.15000000000000002       0.58333333333333326        1.6149269026012019E-005  -4.5681230617679628E-004  -4.2024251374794437E-003   25.607025580130745        3.3092234742390647E-009
  0.15000000000000002       0.61666666666666659        3.2057952925290354E-005  -7.2861893911681827E-004  -3.9404003870881282E-003   26.446781130369999        3.2159608483184332E-009
  0.15000000000000002       0.64999999999999991        5.0762758016899161E-005  -9.9226803277230042E-004  -3.6253883690242480E-003   27.202663213704486        3.1302277835737469E-009
  0.15000000000000002       0.68333333333333324        7.1409462094859956E-005  -1.2418488060392972E-003  -3.2627930941063451E-003   27.863932157430305        3.0517440605809520E-009
  0.15000000000000002       0.71666666666666656        9.3010990913706929E-005  -1.4699706557151902E-003  -2.8593377660705030E-003   28.416757074967485        2.9804903267649507E-009
  0.15000000000000002       0.75000000000000000        1.1447577108485930E-004  -1.6675640298186587E-003  -2.4240200046443425E-003   28.843958283319122        2.9166342899872300E-009
  0.15000000000000002       0.78333333333333333        1.3466642942527542E-004  -1.8238768780651734E-003  -1.9691345496296781E-003   29.125322500483737        2.8604563249295945E-009
  0.15000000000000002       0.81666666666666665        1.5249392709203145E-004  -1.9263762788137980E-003  -1.5111547326589589E-003   29.238953969556256        2.8122858920093252E-009
  0.15000000000000002       0.84999999999999998        1.6704300936310872E-004  -1.9598027005845137E-003  -1.0712037077851891E-003   29.164582313618894        2.7724516172417113E-009
  0.15000000000000002       0.88333333333333330        1.7771686108734917E-004  -1.9028387446569650E-003  -6.7480079586277773E-004   28.890773890410820        2.7412439713991876E-009
  0.15000000000000002       0.91666666666666663        1.8439466810980554E-004  -1.7196684373157220E-003  -3.5047269680489823E-004   28.430231140396977        2.7188885483309111E-009
  0.15000000000000002       0.94999999999999996        1.8763454523519507E-004  -1.3422335710639793E-003  -1.2630268387422847E-004   27.851814148484500        2.7055281140442311E-009
  0.15000000000000002       0.98333333333333317        1.8902871286622535E-004  -6.3808836080893783E-004  -2.1294579642138175E-005   27.345449392119423        2.7012112971749880E-009
  0.18333333333333335        1.6666666666666663E-002   3.2492707419333992E-004   6.0370448434451962E-004  -6.9368541807625977E-005   9.5258980305415140        8.0485120330583970E-009
  0.18333333333333335        5.0000000000000003E-002   2.8672069248806002E-004   1.3579492366697723E-003  -2.9664889838883061E-004   9.6701224504058363        5.3020014819521455E-009
  0.18333333333333335        8.3333333333333329E-002   2.5020303734562968E-004   1.7871221985009179E-003  -6.6392240708634071E-004   10.059661841496764        5.2342353853984669E-009
  0.18333333333333335       0.11666666666666665        2.1465944051086175E-004   2.0065666297771003E-003  -1.1078075307092833E-003   10.732792505444054        5.1464299575393335E-009
  0.18333333333333335       0.15000000000000002        1.7995161832357057E-004   2.1014901863604810E-003  -1.5837757989924160E-003   11.671975318439248        5.0399677400253529E-009
  0.18333333333333335       0.18333333333333335        1.4633408567423593E-004   2.1222927222300011E-003  -2.0606502402317930E-003   12.822165540541400        4.9166228571068116E-009
  0.18333333333333335       0.21666666666666667        1.1426826183023626E-004   2.0908669206776464E-003  -2.5157456722610773E-003   14.114888215729199        4.7786294643525906E-009
  0.18333333333333335       0.25000000000000000        8.4318547472624297E-005   2.0121902634202419E-003  -2.9315850328496267E-003   15.487623340518079        4.6287651454812728E-009
  0.18333333333333335       0.28333333333333333        5.7102515327103889E-005   1.8851622622760929E-003  -3.2943946458943033E-003   16.892596038698787        4.4704325328354111E-009
  0.18333333333333335       0.31666666666666665        3.3250665124566164E-005   1.7094586513925602E-003  -3.5938748372344592E-003   18.296573347778594        4.3076960800497721E-009
  0.18333333333333335       0.35000000000000003        1.3354300755918577E-005   1.4882504944876342E-003  -3.8234598551050453E-003   19.676855888487079        4.1451971412656552E-009
  0.18333333333333335       0.38333333333333336       -2.0936863999206230E-006   1.2281459998453384E-003  -3.9804247779329600E-003   21.017492503411930        3.9878368250818863E-009
  0.18333333333333335       0.41666666666666669       -1.2748588808993805E-005   9.3782412778924454E-004  -4.0655355633813194E-003   22.307036162364724        3.8401338424247367E-009