 TITLE = "Cavity_simu"
 Variables="X","Y","P","U","V","T","div"
 Zone I=          30 , J=          30 , F = POINT
   1.6666666666666663E-002   1.6666666666666663E-002   1.9383779135057969E-004   4.7861234221679589E-005  -4.7861327557640721E-005   7.7104669389256761       -5.6001576678905984E-009
   1.6666666666666663E-002   5.0000000000000003E-002   1.5750582408747117E-004   8.1563811563118159E-005  -1.7728653626329492E-004   7.7011479759517938       -4.1750937195342286E-009
   1.6666666666666663E-002   8.3333333333333329E-002   1.2807163031086191E-004   8.2163967205559925E-005  -3.4101445377854474E-004   7.7135057663077600       -4.1497005866253378E-009
   1.6666666666666663E-002  0.11666666666666665        1.0415499975933312E-004   7.1309865973145017E-005  -4.9448842478958693E-004   7.7514119413467872       -4.1202396433917543E-009
   1.6666666666666663E-002  0.15000000000000002        8.4393591925812188E-005   5.8672595800563511E-005  -6.2447102336109228E-004   7.8061018274613492       -4.0876281691068495E-009
   1.6666666666666663E-002  0.18333333333333335        6.7821538203158879E-005   4.7408024546968256E-005  -7.3055177938486499E-004   7.8667412023601022       -4.0529462871745359E-009
   1.6666666666666663E-002  0.21666666666666667        5.3790151722308604E-005   3.8092477544371540E-005  -8.1605241598221108E-004   7.9253074647651163       -4.0174140906318323E-009
   1.6666666666666663E-002  0.25000000000000000        4.1841120395584725E-005   3.0522183889103797E-005  -8.8466721074521252E-004   7.9775555637150610       -3.9823574724331956E-009
   1.6666666666666663E-002  0.28333333333333333        3.1623983735276410E-005   2.4353010062554236E-005  -9.3954253688881295E-004   8.0221953081629760       -3.9491590776621205E-009
   1.6666666666666663E-002  0.31666666666666665        2.2854100181834859E-005   1.9274741574280443E-005  -9.8317041966483176E-004   8.0596895532474804       -3.9191919700906630E-009
   1.6666666666666663E-002  0.35000000000000003        1.5292978035855292E-005   1.5037072583202178E-005  -1.0174823640377931E-003   8.0912963778470548       -3.8937367485012211E-009
   1.6666666666666663E-002  0.38333333333333336        8.7384680656883912E-006   1.1440400457540357E-005  -1.0439599665389436E-003   8.1184881477361586       -3.8738877319735923E-009
   1.6666666666666663E-002  0.41666666666666669        3.0187025002417506E-006   8.3229725986621211E-006  -1.0637234685009411E-003   8.1426750752657249       -3.8604599742614321E-009
   1.6666666666666663E-002  0.45000000000000001       -2.0126421052819889E-006   5.5500154574089465E-006  -1.0775965851299127E-003   8.1651191792846163       -3.8539140534464902E-009
   1.6666666666666663E-002  0.48333333333333334       -6.4805629821662074E-006   3.0042005677820579E-006  -1.0861509296256012E-003   8.1869465126559824       -3.8543157970262996E-009
   1.6666666666666663E-002  0.51666666666666661       -1.0492718820687884E-005   5.7595214758673996E-007  -1.0897312109352702E-003   8.2091984618230232       -3.8613422030607243E-009
   1.6666666666666663E-002  0.54999999999999993       -1.4143469643340635E-005  -1.8477302167280149E-006  -1.0884595617940312E-003   8.2328874735144808       -3.8743319411233077E-009
   1.6666666666666663E-002  0.58333333333333326       -1.7518494329533993E-005  -4.3970109883457547E-006  -1.0822149500339341E-003   8.2590355636002748       -3.8923666530578729E-009
   1.6666666666666663E-002  0.61666666666666659       -2.0700920731319172E-005  -7.2361889431841658E-006  -1.0705818802145797E-003   8.2886779922771563       -3.9143638951933193E-009
   1.6666666666666663E-002  0.64999999999999991       -2.3780472224228165E-005  -1.0583621277317347E-005  -1.0527622008862231E-003   8.3228133571154075       -3.9391647954590756E-009
   1.6666666666666663E-002  0.68333333333333324       -2.6867865482360467E-005  -1.4732266819482005E-005  -1.0274464445356047E-003   8.3622788177187655       -3.9656060581583913E-009
   1.6666666666666663E-002  0.71666666666666656       -3.0117545053465042E-005  -2.0064464780211513E-005  -9.9264984557222375E-004   8.4075289619641982       -3.9925726908612846E-009
   1.6666666666666663E-002  0.75000000000000000       -3.3762647831311477E-005  -2.7047106835597823E-005  -9.4553840748316798E-004   8.4583032130101916       -4.0190325295216822E-009
   1.6666666666666663E-002  0.78333333333333333       -3.8166433997786372E-005  -3.6180075802544420E-005  -8.8231135922983792E-004   8.5131856540535029       -4.0440561953868082E-009
   1.6666666666666663E-002  0.81666666666666665       -4.3893363122028460E-005  -4.7847165811186732E-005  -7.9828425279748674E-004   8.5691036161501710       -4.0668266059439018E-009
   1.6666666666666663E-002  0.84999999999999998       -5.1798574350108578E-005  -6.1974522475973103E-005  -6.8846270040146690E-004   8.6209011580395991       -4.0866417940627064E-009
   1.6666666666666663E-002  0.88333333333333330       -6.3122634810462372E-005  -7.7310446622711149E-005  -5.4917786779538056E-004   8.6613157700465546       -4.1029140805323716E-009
   1.6666666666666663E-002  0.91666666666666663       -7.9549643881030382E-005  -8.9931346367573068E-005  -3.8193621177312392E-004   8.6821038841482956       -4.1151675721565195E-009
   1.6666666666666663E-002  0.94999999999999996       -1.0311622228294587E-004  -9.0102236608861084E-005  -2.0190276610007141E-004   8.6779348525223359       -4.1230353280824472E-009
   1.6666666666666663E-002  0.98333333333333317       -1.3567374717365173E-004  -5.5900367875184420E-005  -5.5900299104232901E-005   8.6561807366800139       -4.1262570912165009E-009
   5.0000000000000003E-002   1.6666666666666663E-002   1.9256579149355753E-004   1.7973273443180811E-004  -8.4010335239494480E-005   10.298197329572254       -4.1550627339834167E-009
   5.0000000000000003E-002   5.0000000000000003E-002   1.5902713218539144E-004   3.0956195407683292E-004  -3.1445504723481019E-004   10.267737860141454       -2.7483134778377716E-009
   5.0000000000000003E-002   8.3333333333333329E-002   1.3099110912342970E-004   3.2042206445906797E-004  -6.1698359956682824E-004   10.286177710477311       -2.7316949258171519E-009
   5.0000000000000003E-002  0.11666666666666665        1.0732692335155070E-004   2.8483793375440981E-004  -9.1529602216144619E-004   10.361500279413809       -2.7126180763420438E-009
   5.0000000000000003E-002  0.15000000000000002        8.7253766881229133E-005   2.3805494078364076E-004  -1.1782240632240149E-003   10.473333356467558       -2.6916980380708999E-009
   5.0000000000000003E-002  0.18333333333333335        7.0189044652279312E-005   1.9375765789801961E-004  -1.3978755105665942E-003   10.597762604677044       -2.6696609081375278E-009
   5.0000000000000003E-002  0.21666666666666667        5.5665222268064600E-005   1.5581958736753728E-004  -1.5764518402660225E-003   10.717684021029644       -2.6473321573100561E-009
   5.0000000000000003E-002  0.25000000000000000        4.3287850152904645E-005   1.2441667104548041E-004  -1.7194588636945773E-003   10.824370154384983       -2.6256170965709147E-009
   5.0000000000000003E-002  0.28333333333333333        3.2716695691642521E-005   9.8618690554983987E-005  -1.8327439245765065E-003   10.915360477893167       -2.6054697657186543E-009
   5.0000000000000003E-002  0.31666666666666665        2.3657460746271811E-005   7.7321021047962812E-005  -1.9214282194610637E-003   10.991771597799763       -2.5878470204417081E-009
   5.0000000000000003E-002  0.35000000000000003        1.5857042346030796E-005   5.9522629814797507E-005  -1.9896483280337513E-003   11.056269301962839       -2.5736465135688807E-009
   5.0000000000000003E-002  0.38333333333333336        9.0993064120139212E-006   4.4380359068881215E-005  -2.0405964564572500E-003   11.111889252236780       -2.5636317897096556E-009
   5.0000000000000003E-002  0.41666666666666669        3.2005429590626175E-006   3.1195731661458540E-005  -2.0766458864416113E-003   11.161499462171557       -2.5583537995336678E-009
   5.0000000000000003E-002  0.45000000000000001       -1.9953387291998938E-006   1.9383644848510571E-005  -2.0994793721134230E-003   11.207646237007749       -2.5580853084666150E-009
   5.0000000000000003E-002  0.48333333333333334       -6.6216334894900646E-006   8.4359989945111477E-006  -2.1101906692539336E-003   11.252589942450436       -2.5627869320785351E-009
   5.0000000000000003E-002  0.51666666666666661       -1.0793569691628412E-005  -2.1179231692772252E-006  -2.1093485252301697E-003   11.298411750903895       -2.5721174694520819E-009
   5.0000000000000003E-002  0.54999999999999993       -1.4613084503527740E-005  -1.2755734427840125E-005  -2.0970185097314003E-003   11.347124038965129       -2.5854864525373666E-009
   5.0000000000000003E-002  0.58333333333333326       -1.8174100450484528E-005  -2.4012677961555480E-005  -2.0727396662124542E-003   11.400743211854408       -2.6021316542473860E-009
   5.0000000000000003E-002  0.61666666666666659       -2.1569137557924276E-005  -3.6539049062961278E-005  -2.0354544261065198E-003   11.461291614947504       -2.6211997071565879E-009
   5.0000000000000003E-002  0.64999999999999991       -2.4898552500728383E-005  -5.1160276989147667E-005  -1.9833948082123264E-003   11.530693139864052       -2.6418150434175808E-009
   5.0000000000000003E-002  0.68333333333333324       -2.8284228710088329E-005  -6.8927093699650387E-005  -1.9139393021328785E-003   11.610522549167570       -2.6631300411444903E-009
   5.0000000000000003E-002  0.71666666666666656       -3.1890090948348531E-005  -9.1127857396513457E-005  -1.8234779033608852E-003   11.701568222260414       -2.6843569693457692E-009
   5.0000000000000003E-002  0.75000000000000000       -3.5952203295996042E-005  -1.1920901919433406E-004  -1.7073642598206939E-003   11.803179094985394       -2.7047852672879014E-009
   5.0000000000000003E-002  0.78333333333333333       -4.0820982317161402E-005  -1.5450650840906059E-004  -1.5601031879698146E-003   11.912398694337906       -2.7237885922432037E-009
   5.0000000000000003E-002  0.81666666666666665       -4.7016191814421617E-005  -1.9761871649540399E-004  -1.3760325373697202E-003   12.022961042640693       -2.7408258848268807E-009
   5.0000000000000003E-002  0.84999999999999998       -5.5289677704047928E-005  -2.4712582513675564E-004  -1.1509314639162977E-003   12.124380731141310       -2.7554391650308485E-009
   5.0000000000000003E-002  0.88333333333333330       -6.6676973312668848E-005  -2.9712060615620878E-004  -8.8525506286552197E-004   12.201732784123573       -2.7672500436948244E-009
   5.0000000000000003E-002  0.91666666666666663       -8.2490561223798057E-005  -3.3251568409137396E-004  -5.9010245098528005E-004   12.237594914073963       -2.7759563033663559E-009
   5.0000000000000003E-002  0.94999999999999996       -1.0416424122456230E-004  -3.2001904700564227E-004  -2.9763497846255156E-004   12.219752601593946       -2.7813288686062698E-009
   5.0000000000000003E-002  0.98333333333333317       -1.3285605642655989E-004  -1.9071100765225417E-004  -7.8910225515056297E-005   12.163115689806107       -2.7832097416677359E-009
   8.3333333333333329E-002   1.6666666666666663E-002   1.8358297455926351E-004   3.4637598077719796E-004  -8.2633048606298504E-005   12.710844304996209       -4.0949614558624670E-009
   8.3333333333333329E-002   5.0000000000000003E-002   1.5385715590062710E-004   6.0899526260363044E-004  -3.1826511990549735E-004   12.650493715552171       -2.7070019576608262E-009
   8.3333333333333329E-002   8.3333333333333329E-002   1.2817616790101541E-004   6.4715934186552180E-004  -6.4190733481226563E-004   12.663625837815522       -2.6913217383850441E-009
   8.3333333333333329E-002  0.11666666666666665        1.0575948604144768E-004   5.8822118951934964E-004  -9.7371562553871100E-004   12.765541671445696       -2.6733454373817356E-009
   8.3333333333333329E-002  0.15000000000000002        8.6263851623761349E-005   4.9903854881858253E-004  -1.2751546271315124E-003   12.925697832547533       -2.6536677646959994E-009
   8.3333333333333329E-002  0.18333333333333335        6.9438079657938064E-005   4.0936792747875818E-004  -1.5320972348717614E-003   13.107379207586803       -2.6330021643886092E-009
   8.3333333333333329E-002  0.21666666666666667        5.5008043576441845E-005   3.2989318110505445E-004  -1.7432049445267909E-003   13.284090990383897       -2.6121769062040223E-009
   8.3333333333333329E-002  0.25000000000000000        4.2672598630368035E-005   2.6283597773085608E-004  -1.9126909961419648E-003   13.442134274841232       -2.5921239720644307E-009
   8.3333333333333329E-002  0.28333333333333333        3.2128352254387119E-005   2.0719458238035242E-004  -2.0464013070552022E-003   13.577417966555503       -2.5738545132020230E-009
   8.3333333333333329E-002  0.31666666666666665        2.3091222604809202E-005   1.6101714976764648E-004  -2.1499892048087929E-003   13.691349878329865       -2.5584144737640646E-009
   8.3333333333333329E-002  0.35000000000000003        1.5307958243171468E-005   1.2228136901865067E-004  -2.2282241352716906E-003   13.787739555360346       -2.5468148787816114E-009
   8.3333333333333329E-002  0.38333333333333336        8.5593904282725508E-006   8.9183308597798956E-005  -2.2848378659814580E-003   13.870997230047168       -2.5399365215228453E-009
   8.3333333333333329E-002  0.41666666666666669        2.6586928215154710E-006   6.0192035520862424E-005  -2.3225878593911091E-003   13.945307396599752       -2.5384193341054795E-009
   8.3333333333333329E-002  0.45000000000000001       -2.5527679450386688E-006   3.4015619091227819E-005  -2.3433828217784137E-003   14.014381545711677       -2.5425612918241261E-009
   8.3333333333333329E-002  0.48333333333333334       -7.2104271122638572E-006   9.5345111987313529E-006  -2.3484021813464204E-003   14.081496397040578       -2.5522612423701423E-009
   8.3333333333333329E-002  0.51666666666666661       -1.1431624032303922E-005  -1.4277986967804007E-005  -2.3381829446791945E-003   14.149638639746604       -2.5670333802423409E-009
   8.3333333333333329E-002  0.54999999999999993       -1.5320659941616866E-005  -3.8442530034237003E-005  -2.3126662726185173E-003   14.221655665735446       -2.5860913170031724E-009
   8.3333333333333329E-002  0.58333333333333326       -1.8974088177412788E-005  -6.4066120847209782E-005  -2.2712050506816738E-003   14.300352034564673       -2.6084662606978837E-009
   8.3333333333333329E-002  0.61666666666666659       -2.2486875801809368E-005  -9.2436013139060173E-005  -2.2125400582411478E-003   14.388484780795887       -2.6331199703272246E-009
   8.3333333333333329E-002  0.64999999999999991       -2.5960435120965848E-005  -1.2510243340436514E-004  -2.1347607315634460E-003   14.488609508344780       -2.6590305317840401E-009
   8.3333333333333329E-002  0.68333333333333324       -2.9513905697579533E-005  -1.6392083544106977E-004  -2.0352805169732806E-003   14.602724051894951       -2.6852458082614328E-009
   8.3333333333333329E-002  0.71666666666666656       -3.3300438286163652E-005  -2.1099662279060018E-004  -1.9108795876704851E-003   14.731656440277968       -2.7109102055181133E-009
   8.3333333333333329E-002  0.75000000000000000       -3.7530441245371534E-005  -2.6843132460056715E-004  -1.7579023409991248E-003   14.874158150646229       -2.7352736386640486E-009
   8.3333333333333329E-002  0.78333333333333333       -4.2503380792214543E-005  -3.3770090897999362E-004  -1.5727468888984640E-003   15.025705154596233       -2.7576900676201666E-009
   8.3333333333333329E-002  0.81666666666666665       -4.8647762941475150E-005  -4.1838934147625105E-004  -1.3528526972787103E-003   15.177105641678740       -2.7776113874222741E-009
   8.3333333333333329E-002  0.84999999999999998       -5.6563149384117991E-005  -5.0582371185102493E-004  -1.0984854435112912E-003   15.313236452416227       -2.7945800500084328E-009
   8.3333333333333329E-002  0.88333333333333330       -6.7044376866136866E-005  -5.8684792460847110E-004  -8.1573682482038925E-004   15.412769997256195       -2.8082219674652187E-009
   8.3333333333333329E-002  0.91666666666666663       -8.1041367645101983E-005  -6.3239438194975317E-004  -5.2128360655114177E-004   15.451086354572409       -2.8182408230020828E-009
   8.3333333333333329E-002  0.94999999999999996       -9.9470065443719503E-005  -5.8437856879310092E-004  -2.4951304609369487E-004   15.411787512164731       -2.8244137523572577E-009
   8.3333333333333329E-002  0.98333333333333317       -1.2278451242322532E-004  -3.3210539924780676E-004  -6.2484072583859448E-005   15.319435725696211       -2.8265884693609578E-009
  0.11666666666666665        1.6666666666666663E-002   1.6829167803359947E-004   4.9191493424423122E-004  -6.2906040052536263E-005   14.934033893218606       -4.0165466317493292E-009
  0.11666666666666665        5.0000000000000003E-002   1.4316594205236534E-004   8.8840879439209966E-004  -2.5222667854804228E-004   14.843563969811271       -2.6538420974664412E-009
  0.11666666666666665        8.3333333333333329E-002   1.2051039151818717E-004   9.6671734709187366E-004  -5.2755617884727335E-004   14.840738545860971       -2.6393049048362149E-009
  0.11666666666666665       0.11666666666666665        1.0005062488549648E-004   8.9600103087137859E-004  -8.2308591180954463E-004   14.951009580876194       -2.6226480674684804E-009
  0.11666666666666665       0.15000000000000002        8.1831421700334628E-005   7.7086069240568558E-004  -1.1012490710574506E-003   15.139038801319868       -2.6044332471913956E-009
  0.11666666666666665       0.18333333333333335        6.5875495991741143E-005   6.3770787532283087E-004  -1.3444687293559365E-003   15.359193071983521       -2.5853503816952728E-009
  0.11666666666666665       0.21666666666666667        5.2078324486138051E-005   5.1580972029801372E-004  -1.5476176800171999E-003   15.577240065617625       -2.5662262106984635E-009
  0.11666666666666665       0.25000000000000000        4.0232378177692094E-005   4.1091627020574113E-004  -1.7121286320457797E-003   15.774599360598732       -2.5480274582975748E-009
  0.11666666666666665       0.28333333333333333        3.0081903950087393E-005   3.2282836994637447E-004  -1.8421325719377147E-003   15.944926242939440       -2.5318499575523179E-009
  0.11666666666666665       0.31666666666666665        2.1366506353181012E-005   2.4914524942297662E-004  -1.9423067311221522E-003   16.089142418242535       -2.5188816414611903E-009
  0.11666666666666665       0.35000000000000003        1.3845663863154279E-005   1.8694739642678460E-004  -2.0168660966299943E-003   16.211516791003309       -2.5103255518136441E-009
  0.11666666666666665       0.38333333333333336        7.3084416482030487E-006   1.3346639222820060E-004  -2.0692016453646130E-003   16.317299812246354       -2.5072740708707159E-009
  0.11666666666666665       0.41666666666666669        1.5744295750277221E-006   8.6289220390718831E-005  -2.1018320887247516E-003   16.411582792316231       -2.5105419733124218E-009
  0.11666666666666665       0.45000000000000001       -3.5095636641493494E-006   4.3360397224388946E-005  -2.1164792578740941E-003   16.498909559491153       -2.5204951777243415E-009
  0.11666666666666665       0.48333333333333334       -8.0743742372647577E-006   2.9020350173292965E-006  -2.1141723694621927E-003   16.583271391869005       -2.5369430698991141E-009
  0.11666666666666665       0.51666666666666661       -1.2233594043847050E-005  -3.6696331539929058E-005  -2.0953409556325117E-003   16.668253001464912       -2.5591595225350067E-009
  0.11666666666666665       0.54999999999999993       -1.6088487781123733E-005  -7.6996986926267319E-005  -2.0598849978676649E-003   16.757196776766349       -2.5860336328939471E-009
  0.11666666666666665       0.58333333333333326       -1.9732802575594765E-005  -1.1963215390083554E-004  -2.0072259031398373E-003   16.853306806350435       -2.6162679006742906E-009
  0.11666666666666665       0.61666666666666659       -2.3257905243230339E-005  -1.6640965129296380E-004  -1.9363513994795020E-003   16.959635414964549       -2.6485459697807301E-009
  0.11666666666666665       0.64999999999999991       -2.6758966526195260E-005  -2.1938374850147626E-004  -1.8458759499451263E-003   17.078897713851074       -2.6816397435958095E-009
  0.11666666666666665       0.68333333333333324       -3.0343190969411905E-005  -2.8084742606242322E-004  -1.7341484378231042E-003   17.213056789545398       -2.7144605582382630E-009
  0.11666666666666665       0.71666666666666656       -3.4141359797319289E-005  -3.5316785006452625E-004  -1.5994517301754327E-003   17.362624569789940       -2.7460721656671905E-009
  0.11666666666666665       0.75000000000000000       -3.8324089651134662E-005  -4.3833492562547294E-004  -1.4403543313469510E-003   17.525642083648172       -2.7756833879954979E-009
  0.11666666666666665       0.78333333333333333       -4.3123826888687690E-005  -5.3701510066257892E-004  -1.2562921752614477E-003   17.696353761368968       -2.8026325279636999E-009
  0.11666666666666665       0.81666666666666665       -4.8861730876246438E-005  -6.4678375141376493E-004  -1.0484779513328466E-003   17.863708265452832       -2.8263706739611871E-009
  0.11666666666666665       0.84999999999999998       -5.5973171745772227E-005  -7.5902065711373810E-004  -8.2125403731685923E-004   18.010091231262358       -2.8464471118691548E-009
  0.11666666666666665       0.88333333333333330       -6.5012852170532538E-005  -8.5364277799897129E-004  -5.8401104588366357E-004   18.111344964491490       -2.8624978073640839E-009
  0.11666666666666665       0.91666666666666663       -7.6595942872234737E-005  -8.9033008888452804E-004  -3.5373389321426444E-004   18.140676271453607       -2.8742371122048027E-009
  0.11666666666666665       0.94999999999999996       -9.1196215763801789E-005  -7.9402750789983752E-004  -1.5791999760259538E-004   18.082574680219842       -2.8814520422471013E-009
  0.11666666666666665       0.98333333333333317       -1.0870799761354970E-004  -4.3099759426791848E-004  -3.6408027259798945E-005   17.970064469911911       -2.8839987299342229E-009
  0.15000000000000002        1.6666666666666663E-002   1.4898125960942566E-004   5.9213637391193619E-004  -3.7315531912518864E-005   16.955838654306529       -3.9212943764473096E-009
  0.15000000000000002        5.0000000000000003E-002   1.2874354437087082E-004   1.1001358167246687E-003  -1.5994357510925263E-004   16.842682962906398       -2.5898348387717873E-009
  0.15000000000000002        8.3333333333333329E-002   1.0950235837233814E-004   1.2246241670304321E-003  -3.5424809140791730E-004   16.818344771210334       -2.5766242551031326E-009
  0.15000000000000002       0.11666666666666665        9.1472466255721729E-005   1.1565505127428891E-003  -5.7717483358986777E-004   16.918633691174172       -2.5614719442734746E-009
  0.15000000000000002       0.15000000000000002        7.5023164505387682E-005   1.0093066629617714E-003  -7.9800729899353533E-004   17.109697239197811       -2.5448853666759641E-009
  0.15000000000000002       0.18333333333333335        6.0396787322720653E-005   8.4314028102189177E-004  -9.9866618798649231E-004   17.342827665115255       -2.5275087916706851E-009
  0.15000000000000002       0.21666666666666667        4.7631656496585838E-005   6.8587922612426766E-004  -1.1710193186711291E-003   17.579424913757382       -2.5101497417093221E-009
  0.15000000000000002       0.25000000000000000        3.6608566111895059E-005   5.4763575138727270E-004  -1.3132975222871475E-003   17.797156097239945       -2.4938053462542076E-009
  0.15000000000000002       0.28333333333333333        2.7125356175543136E-005   4.2985317439153442E-004  -1.4270380355779098E-003   17.987228279408694       -2.4796775847935049E-009
  0.15000000000000002       0.31666666666666665        1.8955386851154088E-005   3.3029010569333766E-004  -1.5150337037684398E-003   18.149346622247950       -2.4691576144819649E-009
  0.15000000000000002       0.35000000000000003        1.1881375508348725E-005   2.4551684520713018E-004  -1.5801888093465654E-003   18.287423719477836       -2.4637508626128291E-009
  0.15000000000000002       0.38333333333333336        5.7100759660468079E-006   1.7203725285844387E-004  -1.6249937357936020E-003   18.406831805744627       -2.4649134961873126E-009
  0.15000000000000002       0.41666666666666669        2.7550956755606742E-007   1.0670662630697997E-004  -1.6513517249219936E-003   18.512982294637407       -2.4737920180199768E-009
  0.15000000000000002       0.45000000000000001       -4.5633912856418230E-006   4.6813698702316274E-005  -1.6605754297625759E-003   18.610769528109927       -2.4909150076238805E-009
  0.15000000000000002       0.48333333333333334       -8.9272219700586898E-006  -9.9839843010366132E-006  -1.6534497680727564E-003   18.704479740635268       -2.5159698200695468E-009
  0.15000000000000002       0.51666666666666661       -1.2920880505312926E-005  -6.5779588973135055E-005  -1.6303120744825476E-003   18.797898895637086       -2.5478285066568226E-009
  0.15000000000000002       0.54999999999999993       -1.6638010701038233E-005  -1.2254878394919879E-004  -1.5911331490890981E-003   18.894461276954061       -2.5848487790296193E-009
  0.15000000000000002       0.58333333333333326       -2.0165048203978021E-005  -1.8227176356033396E-004  -1.5356010106741488E-003   18.997345633045381       -2.6252288869241941E-009
  0.15000000000000002       0.61666666666666659       -2.3585145332143288E-005  -2.4702627569209433E-004  -1.4632194562309133E-003   19.109455496577148       -2.6672607230521228E-009
  0.15000000000000002       0.64999999999999991       -2.6982483919155754E-005  -3.1902230500486188E-004  -1.3734399033111092E-003   19.233229397140686       -2.7094537486012371E-009
  0.15000000000000002       0.68333333333333324       -3.0447695135673200E-005  -4.0052729015706902E-004  -1.2658491757704272E-003   19.370228669395608       -2.7505655890956715E-009
  0.15000000000000002       0.71666666666666656       -3.4085301115434307E-005  -4.9359610212848742E-004  -1.1404379506041911E-003   19.520457359339673       -2.7895836474112201E-009
  0.15000000000000002       0.75000000000000000       -3.8024165351141518E-005  -5.9946866069541475E-004  -9.9797354791590718E-004   19.681392294018604       -2.8256890447289629E-009
  0.15000000000000002       0.78333333333333333       -4.2431530915362564E-005  -7.1742210880900359E-004  -8.4049514848878997E-004   19.846758779467166       -2.8582197997284453E-009
  0.15000000000000002       0.81666666666666665       -4.7529475022568140E-005  -8.4274910024210092E-004  -6.7193720500701598E-004   20.005214158889292       -2.8866401291863242E-009
  0.15000000000000002       0.84999999999999998       -5.3607741737223824E-005  -9.6335485115031021E-004  -4.9886176732435246E-004   20.139383541661623       -2.9105175101615255E-009
  0.15000000000000002       0.88333333333333330       -6.1015924699472021E-005  -1.0541932191770499E-003  -3.3122031602571538E-004   20.226334140209964       -2.9295066502829648E-009
  0.15000000000000002       0.91666666666666663       -7.0097488793551942E-005  -1.0683830815792531E-003  -1.8289422831531895E-004   20.242022968918661       -2.9433389241509400E-009
  0.15000000000000002       0.94999999999999996       -8.1000228722964251E-005  -9.2343203005338151E-004  -7.1250803259449187E-005   20.175325124462443       -2.9518157371524745E-009
  0.15000000000000002       0.98333333333333317       -9.3290436626965563E-005  -4.8088087954612369E-004  -1.3475160705016179E-005   20.062873600917296       -2.9548046771941255E-009
  0.18333333333333335        1.6666666666666663E-002   1.2790859467255296E-004   6.4271377368291618E-004  -1.3261996729519432E-005   18.756636665479427       -3.8109691217645333E-009
  0.18333333333333335        5.0000000000000003E-002   1.1240808070465226E-004   1.2280982290667137E-003  -6.9173979617036683E-005   18.633012943562839       -2.5161752260742520E-009
  0.18333333333333335        8.3333333333333329E-002   9.6702067724217669E-005   1.3978904835600619E-003  -1.7609836197497080E-004   18.588360659116887       -2.5044611146225748E-009
  0.18333333333333335       0.11666666666666665        8.1360881131637889E-005   1.3453524264117108E-003  -3.1524001888365766E-004   18.666082872608456       -2.4909738395237357E-009
  0.18333333333333335       0.15000000000000002        6.6983389921175892E-005   1.1920623501835009E-003  -4.6596532226162899E-004   18.838600673843182       -2.4761341197929165E-009
  0.18333333333333335       0.18333333333333335        5.3973703450325239E-005   1.0073261325635045E-003  -6.1224813884918109E-004   19.059886892859680       -2.4605017372517080E-009
  0.18333333333333335       0.21666666666666667        4.2487590036149505E-005   8.2607703752008051E-004  -7.4427883681839595E-004   19.291054016600746       -2.4448252862289965E-009
  0.18333333333333335       0.25000000000000000        3.2489790430665528E-005   6.6287403039676555E-004  -8.5743688825574364E-004   19.508028545607047       -2.4301032410314893E-009
  0.18333333333333335       0.28333333333333333        2.3837500784209056E-005   5.2139755309704185E-004  -9.5047919636717193E-004   19.700066611438771       -2.4176452489282907E-009
  0.18333333333333335       0.31666666666666665        1.6346755610506170E-005   4.0019966796396328E-004  -1.0239376320792218E-003   19.865335173403558       -2.4091063616660940E-009
  0.18333333333333335       0.35000000000000003        9.8321894818682959E-006   2.9585868320818770E-004  -1.0790340892470910E-003   20.006755869984545       -2.4064438592860671E-009
  0.18333333333333335       0.38333333333333336        4.1255018857354538E-006   2.0453713597019067E-004  -1.1170710463600732E-003   20.129150061509634       -2.4117246448605162E-009
  0.18333333333333335       0.41666666666666669       -9.1912451707024943E-007   1.2264276874202231E-004  -1.1391492457310140E-003   20.237649372707885       -2.4267224541700896E-009