 TITLE = "Cavity_simu"
 Variables="X","Y","P","U","V","T","div"
 Zone I=          30 , J=          30 , F = POINT
   1.6666666666666663E-002   1.6666666666666663E-002   3.2510441721451689E-004   1.5321211443488008E-005  -1.5321024634702808E-005   5.8907994149988836        1.1208527111983800E-008
   1.6666666666666663E-002   5.0000000000000003E-002   2.8235101034159474E-004   4.2547950269711238E-005  -7.3189860563565117E-005   5.9312159158421247        8.3385331040193578E-009
   1.6666666666666663E-002   8.3333333333333329E-002   2.4198081918246043E-004   5.6972792433436750E-005  -1.7271032679519303E-004   6.0208902102292594        8.2497581006119036E-009
   1.6666666666666663E-002  0.11666666666666665        2.0448394696156945E-004   6.3161915877396588E-005  -2.9284476203258271E-004   6.1632137006627694        8.1346485181557626E-009
   1.6666666666666663E-002  0.15000000000000002        1.6983518664689557E-004   6.5861415038364135E-005  -4.2186782411304899E-004   6.3548582599963837        7.9954691513395293E-009
   1.6666666666666663E-002  0.18333333333333335        1.3798774096724606E-004   6.7637007822648660E-005  -5.5536598313339278E-004   6.5874265070712594        7.8349709914382615E-009
   1.6666666666666663E-002  0.21666666666666667        1.0902331369703093E-004   6.9287810971558153E-005  -6.9229054373910900E-004   6.8502347072449714        7.6563384443159577E-009
   1.6666666666666663E-002  0.25000000000000000        8.3146673216689921E-005   7.0669982059841201E-005  -8.3224808477960234E-004   7.1328476077077267        7.4631159125912450E-009
   1.6666666666666663E-002  0.28333333333333333        6.0634059013955827E-005   7.1311821453903917E-005  -9.7422964292294217E-004   7.4265638972707757        7.2591084046558230E-009
   1.6666666666666663E-002  0.31666666666666665        4.1781651759213038E-005   7.0742440936527384E-005  -1.1162836668573519E-003   7.7247929990448183        7.0482528806425915E-009
   1.6666666666666663E-002  0.35000000000000003        2.6865252644895674E-005   6.8619512841864964E-005  -1.2556453892571607E-003   8.0227365142569802        6.8344621403232386E-009
   1.6666666666666663E-002  0.38333333333333336        1.6109371045376168E-005   6.4754633342249533E-005  -1.3890193111760650E-003   8.3168498888429241        6.6214504664853513E-009
   1.6666666666666663E-002  0.41666666666666669        9.6627359008550866E-006   5.9096739924574795E-005  -1.5128704672093709E-003   8.6043763019602792        6.4125606413431568E-009
   1.6666666666666663E-002  0.45000000000000001        7.5791670058545612E-006   5.1699651957160602E-005  -1.6236666487047745E-003   8.8830364342133077        6.2106192610586475E-009
   1.6666666666666663E-002  0.48333333333333334        9.8036948474662259E-006   4.2684865496517296E-005  -1.7180509623506575E-003   9.1508388377198617        6.0178484452555470E-009
   1.6666666666666663E-002  0.51666666666666661        1.6163438868191982E-005   3.2207872831618164E-005  -1.7929435031171248E-003   9.4059484812565124        5.8358516498002028E-009
   1.6666666666666663E-002  0.54999999999999993        2.6362066793833261E-005   2.0435254766447010E-005  -1.8455864390231366E-003   9.6465717169216756        5.6656715363093829E-009
   1.6666666666666663E-002  0.58333333333333326        3.9976487833203898E-005   7.5362690937043280E-006  -1.8735577766571315E-003   9.8708456684713521        5.5078978512422203E-009
   1.6666666666666663E-002  0.61666666666666659        5.6454950986105305E-005  -6.3128454938615144E-006  -1.8747810190787562E-003   10.076740665329067        5.3627952341459700E-009
   1.6666666666666663E-002  0.64999999999999991        7.5116572545487329E-005  -2.0919004961923637E-005  -1.8475489920693189E-003   10.261992408352267        5.2304239012840315E-009
   1.6666666666666663E-002  0.68333333333333324        9.5152887066681083E-005  -3.6067278489122570E-005  -1.7905625362655934E-003   10.424078355561413        5.1107368541185305E-009
   1.6666666666666663E-002  0.71666666666666656        1.1563165473228708E-004  -5.1530571779112714E-005  -1.7029645174242787E-003   10.560243479569255        5.0036479187429150E-009
   1.6666666666666663E-002  0.75000000000000000        1.3550139217672968E-004  -6.7097060418026076E-005  -1.5843367200151391E-003   10.667567578314184        4.9090721192940334E-009
   1.6666666666666663E-002  0.78333333333333333        1.5359187587215089E-004  -8.2601527714448709E-005  -1.4346379696157235E-003   10.743056727467952        4.8269443320841932E-009
   1.6666666666666663E-002  0.81666666666666665        1.6860196226247933E-004  -9.7911623430464620E-005  -1.2541246587346941E-003   10.783753265363231        4.7572226418574060E-009
   1.6666666666666663E-002  0.84999999999999998        1.7906377685514830E-004  -1.1274824061499356E-004  -1.0434646370708173E-003   10.786936822699841        4.6998824623778468E-009
   1.6666666666666663E-002  0.88333333333333330        1.8327718160377046E-004  -1.2606362133162909E-004  -8.0465261921105146E-004   10.750739304454028        4.6549061315584450E-009
   1.6666666666666663E-002  0.91666666666666663        1.7923420724226419E-004  -1.3433664022150679E-004  -5.4425220303829338E-004   10.676158623247613        4.6222712012100597E-009
   1.6666666666666663E-002  0.94999999999999996        1.6463802544154925E-004  -1.2727452764649778E-004  -2.8264088143344090E-004   10.573021476999918        4.6019396722149497E-009
   1.6666666666666663E-002  0.98333333333333317        1.3737797941787189E-004  -7.7683061979818137E-005  -7.7683138543974302E-005   10.475540767189656        4.5938493694816507E-009
   5.0000000000000003E-002   1.6666666666666663E-002   3.2646324691601225E-004   7.5241828185357079E-005  -4.4599265956214196E-005   6.7522362918523955        8.3605300117868542E-009
   5.0000000000000003E-002   5.0000000000000003E-002   2.8463555068367763E-004   1.8484474637083616E-004  -1.8894728575372273E-004   6.8300230183794524        5.5194071613487439E-009
   5.0000000000000003E-002   8.3333333333333329E-002   2.4534692346681801E-004   2.4512104130672562E-004  -4.1987140507741111E-004   7.0088561245197480        5.4574474852436827E-009
   5.0000000000000003E-002  0.11666666666666665        2.0858365772550105E-004   2.7364743968738293E-004  -6.9837028885696799E-004   7.2969848666990869        5.3781256201951289E-009
   5.0000000000000003E-002  0.15000000000000002        1.7432732966713986E-004   2.8697830123273533E-004  -1.0009491902601415E-003   7.6870002281164780        5.2829997806980167E-009
   5.0000000000000003E-002  0.18333333333333335        1.4263916695842057E-004   2.9454099832726079E-004  -1.3154714698155033E-003   8.1602468992039263        5.1739567404757159E-009
   5.0000000000000003E-002  0.21666666666666667        1.1367913748252322E-004   2.9960698779122160E-004  -1.6357696478932590E-003   8.6934020790201973        5.0531820307980757E-009
   5.0000000000000003E-002  0.25000000000000000        8.7683186104715291E-005   3.0191157559108866E-004  -1.9573724589411440E-003   9.2642329915412773        4.9231155731938037E-009
   5.0000000000000003E-002  0.28333333333333333        6.4930145191883801E-005   2.9987033111455189E-004  -2.2751905967942406E-003   9.8547451349101678        4.7863876334597322E-009
   5.0000000000000003E-002  0.31666666666666665        4.5711253155889131E-005   2.9188535845366310E-004  -2.5828376043796355E-003   10.451738063545928        4.6457298320812246E-009
   5.0000000000000003E-002  0.35000000000000003        3.0302636696378168E-005   2.7690227616647487E-004  -2.8729011789498252E-003   11.045874251341621        4.5038599932878398E-009
   5.0000000000000003E-002  0.38333333333333336        1.8938492882347953E-005   2.5452942100015561E-004  -3.1375844359614606E-003   11.630401875263304        4.3633459553826803E-009
   5.0000000000000003E-002  0.41666666666666669        1.1785104160173293E-005   2.2494996865968350E-004  -3.3693609359241551E-003   12.200150282752825        4.2264638039357649E-009
   5.0000000000000003E-002  0.45000000000000001        8.9179912211828916E-006   1.8875215330673903E-004  -3.5614701354347621E-003   12.750912018620156        4.0950768939035376E-009
   5.0000000000000003E-002  0.48333333333333334        1.0304486622981309E-005   1.4674585541339029E-004  -3.7081989748201649E-003   13.279081198622556        3.9705653365890159E-009
   5.0000000000000003E-002  0.51666666666666661        1.5792456793990966E-005   9.9811224669459493E-005  -3.8049704478402080E-003   13.781393685261509        3.8538268084566119E-009
   5.0000000000000003E-002  0.54999999999999993        2.5104211414844028E-005   4.8808236746585807E-005  -3.8483035274072611E-003   14.254682359602640        3.7453448933823935E-009
   5.0000000000000003E-002  0.58333333333333326        3.7833786169163490E-005  -5.4453691763318527E-006  -3.8357232240798355E-003   14.695630907843423        3.6452977166760020E-009
   5.0000000000000003E-002  0.61666666666666659        5.3446008490396831E-005  -6.2142812151750923E-005  -3.7656880755692268E-003   15.100550008233132        3.5536727167710669E-009
   5.0000000000000003E-002  0.64999999999999991        7.1276709165424585E-005  -1.2043550905627892E-004  -3.6375733382054982E-003   15.465211346231342        3.4703634263152927E-009
   5.0000000000000003E-002  0.68333333333333324        9.0534461674385446E-005  -1.7939696099498163E-004  -3.4517133206296438E-003   15.784766797471960        3.3952377324550365E-009
   5.0000000000000003E-002  0.71666666666666656        1.1030460749134341E-004  -2.3803319505262953E-004  -3.2094787530615784E-003   16.053759986945771        3.3281777611637864E-009
   5.0000000000000003E-002  0.75000000000000000        1.2955555803760227E-004  -2.9534083892954129E-004  -2.9133598735190942E-003   16.266211207171601        3.2690977078142502E-009
   5.0000000000000003E-002  0.78333333333333333        1.4714545331917078E-004  -3.5035229828078441E-004  -2.5670638044563198E-003   16.415735484229518        3.2179461924991548E-009
   5.0000000000000003E-002  0.81666666666666665        1.6182517148563769E-004  -4.0198876488082723E-004  -2.1757489370404304E-003   16.495669470504900        3.1747000705378836E-009
   5.0000000000000003E-002  0.84999999999999998        1.7223419326693645E-004  -4.4831501619478826E-004  -1.7467647788214991E-003   16.499324370073118        3.1393538550000821E-009
   5.0000000000000003E-002  0.88333333333333330        1.7689498095969558E-004  -4.8433958114529559E-004  -1.2917338011869590E-003   16.420979255686614        3.1119082380404173E-009
   5.0000000000000003E-002  0.91666666666666663        1.7424039725846184E-004  -4.9655134844260433E-004  -8.3164329130086946E-004   16.259666338456409        3.0923594518394992E-009
   5.0000000000000003E-002  0.94999999999999996        1.6276849990219807E-004  -4.5027815592169952E-004  -4.0803601978841052E-004   16.031643253650422        3.0806903972280253E-009
   5.0000000000000003E-002  0.98333333333333317        1.4146364444271050E-004  -2.6151950658600154E-004  -1.0615343390743331E-004   15.807081020856376        3.0768640838299555E-009
   8.3333333333333329E-002   1.6666666666666663E-002   3.2537807844412785E-004   1.8272103172648141E-004  -6.2879659747075146E-005   7.5653696735501361        8.3097400887383044E-009
   8.3333333333333329E-002   5.0000000000000003E-002   2.8426720913476403E-004   4.2100721080946053E-004  -2.6217284669408032E-004   7.6760552456901641        5.4844368421735901E-009
   8.3333333333333329E-002   8.3333333333333329E-002   2.4586040572667007E-004   5.5424654700593858E-004  -5.7653633277912652E-004   7.9396355531841900        5.4224546814501950E-009
   8.3333333333333329E-002  0.11666666666666665        2.0974900110070957E-004   6.2074109769963935E-004  -9.5425625269476020E-004   8.3704792241433985        5.3429489461215285E-009
   8.3333333333333329E-002  0.15000000000000002        1.7581960719590008E-004   6.5229297258027051E-004  -1.3640853264589689E-003   8.9565244750189965        5.2474702222360392E-009
   8.3333333333333329E-002  0.18333333333333335        1.4416650968555357E-004   6.6737395790514048E-004  -1.7877103304566838E-003   9.6673063713982170        5.1379135512091834E-009
   8.3333333333333329E-002  0.21666666666666667        1.1500882354890906E-004   6.7289169617732489E-004  -2.2135294806503621E-003   10.465214850026086        5.0165006228869435E-009
   8.3333333333333329E-002  0.25000000000000000        8.8632460911700151E-005   6.6886504252396161E-004  -2.6321645136123421E-003   11.315117020601857        4.8857484377662352E-009
   8.3333333333333329E-002  0.28333333333333333        6.5355971100506080E-005   6.5270361897860299E-004  -3.0341328081617235E-003   12.189339685282615        4.7484151055599000E-009
   8.3333333333333329E-002  0.31666666666666665        4.5507871405621845E-005   6.2188734096778331E-004  -3.4093207578220711E-003   13.068220644169838        4.6074131853507394E-009
   8.3333333333333329E-002  0.35000000000000003        2.9403360865190038E-005   5.7514117379142303E-004  -3.7474977596795417E-003   13.938306420671003        4.4656814860571936E-009
   8.3333333333333329E-002  0.38333333333333336        1.7315800010506679E-005   5.1264196644872865E-004  -4.0391656514263668E-003   14.790180684720326        4.3260162049807427E-009
   8.3333333333333329E-002  0.41666666666666669        9.4459275325084832E-006   4.3573798322093648E-004  -4.2762894263617705E-003   15.616879554280379        4.1908776952231941E-009
   8.3333333333333329E-002  0.45000000000000001        5.8948914578281838E-006   3.4649050210324594E-004  -4.4527063139650682E-003   16.412970740750865        4.0622129297493426E-009
   8.3333333333333329E-002  0.48333333333333334        6.6456813860960575E-006   2.4722435852025194E-004  -4.5641940586629865E-003   17.174017144931565        3.9413476740114695E-009
   8.3333333333333329E-002  0.51666666666666661        1.1553919459271623E-005   1.4019922127407518E-004  -4.6082888254421897E-003   17.896162490129004        3.8289940424048041E-009
   8.3333333333333329E-002  0.54999999999999993        2.0345751764317266E-005   2.7451999347157288E-005  -4.5839872525214303E-003   18.575713979084583        3.7253678585990463E-009
   8.3333333333333329E-002  0.58333333333333326        3.2619188859335974E-005  -8.9195919682932921E-005  -4.4914605221699575E-003   19.208709802214511        3.6303616558243379E-009
   8.3333333333333329E-002  0.61666666666666659        4.7845839653547178E-005  -2.0801689940040354E-004  -4.3318707933746080E-003   19.790513274722120        3.5437101959454043E-009
   8.3333333333333329E-002  0.64999999999999991        6.5371902534851577E-005  -3.2721466268361977E-004  -4.1073320559813446E-003   20.315484936637958        3.4651136031696450E-009
   8.3333333333333329E-002  0.68333333333333324        8.4419527899339333E-005  -4.4479569766419725E-004  -3.8210139545102259E-003   20.776769647419655        3.3943102044353690E-009
   8.3333333333333329E-002  0.71666666666666656        1.0409129896325475E-004  -5.5852419346218455E-004  -3.4773585628522898E-003   21.166210588447282        3.3311081584080915E-009
   8.3333333333333329E-002  0.75000000000000000        1.2338091901557734E-004  -6.6595257729761437E-004  -3.0823744855542601E-003   21.474374325525481        3.2753895151671486E-009
   8.3333333333333329E-002  0.78333333333333333        1.4119205485320287E-004  -7.6440981362026184E-004  -2.6440010844172804E-003   21.690655511868634        3.2270988069293960E-009
   8.3333333333333329E-002  0.81666666666666665        1.5636536311041397E-004  -8.5062958237634234E-004  -2.1726174055653395E-003   21.803472961194078        3.1862252003467262E-009
   8.3333333333333329E-002  0.84999999999999998        1.6771342438519888E-004  -9.1933993419914418E-004  -1.6819356174000238E-003   21.800806069246526        3.1527834353645146E-009
   8.3333333333333329E-002  0.88333333333333330        1.7407022998081726E-004  -9.5947910879109306E-004  -1.1908019405370452E-003   21.672109744737632        3.1267963912506858E-009
   8.3333333333333329E-002  0.91666666666666663        1.7438645444369248E-004  -9.4546673546373641E-004  -7.2683732843379224E-004   21.414879946376274        3.1082807057380979E-009
   8.3333333333333329E-002  0.94999999999999996        1.6795589386482614E-004  -8.1852805282826933E-004  -3.3327910970911182E-004   21.054946438598993        3.0972356901415310E-009
   8.3333333333333329E-002  0.98333333333333317        1.5491921644099352E-004  -4.4805196855709920E-004  -8.0379130905325517E-005   20.703537835427174        3.0936355829500051E-009
  0.11666666666666665        1.6666666666666663E-002   3.2091478238733536E-004   3.1641569386621683E-004  -7.0814726430675219E-005   8.3221704185637329        8.2479790141851139E-009
  0.11666666666666665        5.0000000000000003E-002   2.8074471602425658E-004   7.1195666215727706E-004  -2.9616519489869276E-004   8.4605025702254544        5.4421958068512355E-009
  0.11666666666666665        8.3333333333333329E-002   2.4316840821561657E-004   9.3388964134378518E-004  -6.5239389234833241E-004   8.7998636488628641        5.3799713017887996E-009
  0.11666666666666665       0.11666666666666665        2.0758663493018292E-004   1.0464514887042111E-003  -1.0800271003533327E-003   9.3612559246209592        5.2999321337870997E-009
  0.11666666666666665       0.15000000000000002        1.7383953860421455E-004   1.0982744489648139E-003  -1.5418895424122109E-003   10.127850831969223        5.2036103845992665E-009
  0.11666666666666665       0.18333333333333335        1.4205648833638451E-004   1.1174826881895769E-003  -2.0143544003851941E-003   11.056906098144719        5.0929027540363991E-009
  0.11666666666666665       0.21666666666666667        1.1251937734227210E-004   1.1151609214194911E-003  -2.4809128687616347E-003   12.096012114509344        4.9700721004020121E-009
  0.11666666666666665       0.25000000000000000        8.5582318403233556E-005   1.0923005421393812E-003  -2.9279822321562482E-003   13.196807376028699        4.8377383436021271E-009
  0.11666666666666665       0.28333333333333333        6.1633351979688503E-005   1.0462148849945088E-003  -3.3429603837257394E-003   14.321862257334534        4.6988452902935185E-009
  0.11666666666666665       0.31666666666666665        4.1070331842775702E-005   9.7460052820294140E-004  -3.7139965771288141E-003   15.445190804089863        4.5565849270817749E-009
  0.11666666666666665       0.35000000000000003        2.4272068292514101E-005   8.7724766323757310E-004  -4.0306389512203746E-003   16.549545577590539        4.4142570519017932E-009
  0.11666666666666665       0.38333333333333336        1.1561454639669700E-005   7.5617856084391150E-004  -4.2846138519647813E-003   17.623360350150971        4.2750513285644276E-009
  0.11666666666666665       0.41666666666666669        3.1682175511258219E-006   6.1500487749280861E-004  -4.4702932834679437E-003   18.658602827997353        4.1417641096289093E-009
  0.11666666666666665       0.45000000000000001       -7.9906917175175877E-007   4.5805903331922111E-004  -4.5847115478297607E-003   19.649541372218383        4.0165091907788664E-009
  0.11666666666666665       0.48333333333333334       -3.6661873189870247E-007   2.8963694727477106E-004  -4.6272046577590037E-003   20.591991834357586        3.9005301820469601E-009
  0.11666666666666665       0.51666666666666661        4.3040672329601963E-006   1.1352607866390311E-004  -4.5988490793726607E-003   21.482690627614602        3.7942173120811967E-009
  0.11666666666666665       0.54999999999999993        1.2923270392546117E-005  -6.7135467415981029E-005  -4.5018897921549460E-003   22.318647485091507        3.6973306360987834E-009
  0.11666666666666665       0.58333333333333326        2.5081205512863491E-005  -2.4971857240352780E-004  -4.3393061586500395E-003   23.096476138537046        3.6092985891689189E-009
  0.11666666666666665       0.61666666666666659        4.0252780602422918E-005  -4.3178795500155640E-004  -4.1146019405763025E-003   23.811758154355452        3.5294698899623889E-009
  0.11666666666666665       0.64999999999999991        5.7798141050993644E-005  -6.1073715593569652E-004  -3.8318468958569423E-003   24.458498230655238        3.4572699633694803E-009
  0.11666666666666665       0.68333333333333324        7.6961982010215302E-005  -7.8348539426203968E-004  -3.4959525789954194E-003   25.028711890045166        3.3922695746174680E-009
  0.11666666666666665       0.71666666666666656        9.6877440835865792E-005  -9.4630680780735774E-004  -3.1131354355123037E-003   25.512167865689065        3.3341942262676838E-009
  0.11666666666666665       0.75000000000000000        1.1658142367559103E-004  -1.0947855038986542E-003  -2.6915037514708903E-003   25.896298557822348        3.2829019173258311E-009
  0.11666666666666665       0.78333333333333333        1.3504703457631754E-004  -1.2237518715642994E-003  -2.2417019510004741E-003   26.166311057218099        3.2383488807186112E-009
  0.11666666666666665       0.81666666666666665        1.5123557700279829E-004  -1.3268091881655014E-003  -1.7775637519154279E-003   26.305635262767510        3.2005545297364435E-009
  0.11666666666666665       0.84999999999999998        1.6416721841601949E-004  -1.3946267712555409E-003  -1.3167788854162906E-003   26.297198360202579        3.1695706614875974E-009
  0.11666666666666665       0.88333333333333330        1.7301128559288321E-004  -1.4104337351420245E-003  -8.8167088896182015E-004   26.127032937200745        3.1454567561706170E-009
  0.11666666666666665       0.91666666666666663        1.7721605708573046E-004  -1.3398996823790464E-003  -5.0024771931891433E-004   25.794363963949724        3.1282611796107362E-009
  0.11666666666666665       0.94999999999999996        1.7675095776295378E-004  -1.1105254772495938E-003  -2.0737535917720362E-004   25.338538921986483        3.1180078319606452E-009
  0.11666666666666665       0.98333333333333317        1.7261610524677129E-004  -5.7238033552385202E-004  -4.3949339533473984E-005   24.906314008246255        3.1146872195124409E-009
  0.15000000000000002        1.6666666666666663E-002   3.1289451274948868E-004   4.5747366507325842E-004  -7.0242971031423058E-005   9.0207992437569242        8.1767175825336880E-009
  0.15000000000000002        5.0000000000000003E-002   2.7393665969712989E-004   1.0229731857699510E-003  -2.9696654303992592E-004   9.1806549032022016        5.3936993083675278E-009
  0.15000000000000002        8.3333333333333329E-002   2.3719790431136632E-004   1.3413515602119070E-003  -6.5921592895649842E-004   9.5822884949789540        5.3310085998403700E-009
  0.15000000000000002       0.11666666666666665        2.0205297767128324E-004   1.5027960452696346E-003  -1.0953888420353189E-003   10.253260236464774        5.2500714383535430E-009
  0.15000000000000002       0.15000000000000002        1.6837430442372386E-004   1.5728075063808470E-003  -1.5644036655247239E-003   11.172540501342274        5.1523764421634866E-009
  0.15000000000000002       0.18333333333333335        1.3636225159354619E-004   1.5893740125357239E-003  -2.0383628478358130E-003   12.285939610542616        5.0397968749671396E-009
  0.15000000000000002       0.21666666666666667        1.0638407173750997E-004   1.5684415115430231E-003  -2.4969759603058572E-003   13.527007763754300        4.9146199089522558E-009
  0.15000000000000002       0.25000000000000000        7.8883185736962374E-005   1.5131317810992877E-003  -2.9240181009612789E-003   14.834645450635392        4.7795738391392950E-009
  0.15000000000000002       0.28333333333333333        5.4336318484735813E-005   1.4221346123635663E-003  -3.3057905998208677E-003   16.161899866902505        4.6378355392229231E-009
  0.15000000000000002       0.31666666666666665        3.3221877526021648E-005   1.2949377740570167E-003  -3.6310110732033726E-003   17.476611525962849        4.4929874282867432E-009
  0.15000000000000002       0.35000000000000003        1.5979926766069490E-005   1.1338481047733617E-003  -3.8913060896231945E-003   18.758019898321539        4.3488795056431662E-009
  0.15000000000000002       0.38333333333333336        2.9656874161307102E-006   9.4386522684629728E-004  -4.0816180089579910E-003   19.992963884520520        4.2093503387768960E-009
  0.15000000000000002       0.41666666666666669       -5.5903874806949653E-006   7.3155387126167567E-004  -4.2001739588267330E-003   21.173205549073682        4.0777951623022224E-009
  0.15000000000000002       0.45000000000000001       -9.6046183128577825E-006   5.0374059575749534E-004  -4.2479859807932644E-003   22.293833227337206        3.9566591214339197E-009
  0.15000000000000002       0.48333333333333334       -9.1414794322207550E-006   2.6651282496792513E-004  -4.2280500489827004E-003   23.352205936453430        3.8470664674716826E-009
  0.15000000000000002       0.51666666666666661       -4.4001026967408684E-006   2.4722154777564993E-005  -4.1444773263315440E-003   24.347034436299442        3.7488449892118803E-009
  0.15000000000000002       0.54999999999999993        4.3042425376548139E-006  -2.1800470706772045E-004  -4.0017632016548631E-003   25.277449310891718        3.6609861375075381E-009
  0.15000000000000002       0.58333333333333326        1.6554676504192323E-005  -4.5886658679076159E-004  -3.8043293386240272E-003   26.142064149007624        3.5821907645033901E-009
  0.15000000000000002       0.61666666666666659        3.1838430337311917E-005  -6.9527285751266291E-004  -3.5564004025958485E-003   26.938091167217287        3.5112552865257385E-009
  0.15000000000000002       0.64999999999999991        4.9544400013435385E-005  -9.2418787542118295E-004  -3.2622195928977962E-003   27.660560458958294        3.4472540360458437E-009
  0.15000000000000002       0.68333333333333324        6.8958170351947148E-005  -1.1415808217911587E-003  -2.9265675346385701E-003   28.301677999127783        3.3895750598672558E-009
  0.15000000000000002       0.71666666666666656        8.9263591036411777E-005  -1.3420764636712683E-003  -2.5555193704966932E-003   28.850356254884083        3.3378788864835141E-009
  0.15000000000000002       0.75000000000000000        1.0956110739867213E-004  -1.5188222436657893E-003  -2.1573444381236340E-003   29.291977702190351        3.2920306133887856E-009
  0.15000000000000002       0.78333333333333333        1.2891117393012402E-004  -1.6634463980601520E-003  -1.7434147545758517E-003   29.608524859327726        3.2520312432532394E-009
  0.15000000000000002       0.81666666666666665        1.4640589711721952E-004  -1.7657238804079697E-003  -1.3289435197743307E-003   29.779388700252245        3.2179601032467087E-009
  0.15000000000000002       0.84999999999999998        1.6126486423611141E-004  -1.8121093445584162E-003  -9.3333090776119630E-004   29.783612908175698        3.1899304066274059E-009
  0.15000000000000002       0.88333333333333330        1.7294742220386945E-004  -1.7815422026300164E-003  -5.7984765220788859E-004   29.605428707420163        3.1680568585157332E-009
  0.15000000000000002       0.91666666666666663        1.8128640280208060E-004  -1.6358161906652336E-003  -2.9424563617314742E-004   29.247449800133666        3.1524332822982504E-009
  0.15000000000000002       0.94999999999999996        1.8669629666794369E-004  -1.3004861602431469E-003  -1.0124059600478899E-004   28.761037295779612        3.1431174338583667E-009
  0.15000000000000002       0.98333333333333317        1.9059045974993585E-004  -6.3170781519521386E-004  -1.5378244384701902E-005   28.312191256608699        3.1401216262633147E-009
  0.18333333333333335        1.6666666666666663E-002   3.0166288528290738E-004   5.9087911664517409E-004  -6.3162209299264094E-005   9.6625711531948433        8.0977561301397161E-009
  0.18333333333333335        5.0000000000000003E-002   2.6414680377505827E-004   1.3248606430630798E-003  -2.7173109601643785E-004   9.8371303223185738        5.3401890444393363E-009
  0.18333333333333335        8.3333333333333329E-002   2.2829151761832793E-004   1.7411976331419598E-003  -6.1121488462775116E-004   10.284165459619031        5.2768207928211019E-009
  0.18333333333333335       0.11666666666666665        1.9356756294268472E-004   1.9512789228258440E-003  -1.0233705711597317E-003   11.037359539448666        5.1946268415231645E-009
  0.18333333333333335       0.15000000000000002        1.5994927857882119E-004   2.0357578414085921E-003  -1.4657886153862216E-003   12.072757966658568        5.0950088540530070E-009
  0.18333333333333335       0.18333333333333335        1.2774743568835022E-004   2.0424388310673466E-003  -1.9078442488520571E-003   13.326760019684686        4.9797644324084400E-009
  0.18333333333333335       0.21666666666666667        9.7439069234871539E-005   1.9931097871005053E-003  -2.3269639007155521E-003   14.720780552672942        4.8511527087069517E-009
  0.18333333333333335       0.25000000000000000        6.9570711627737558E-005   1.8945565939380736E-003  -2.7060145275010269E-003   16.182239853081501        4.7119758667807377E-009
  0.18333333333333335       0.28333333333333333        4.4709163486919757E-005   1.7485212606899135E-003  -3.0320531782225056E-003   17.655281502184312        4.5656586775133512E-009
  0.18333333333333335       0.31666666666666665        2.3400021114699791E-005   1.5577749277859278E-003  -3.2960562050158440E-003   19.101901973403439        4.4162832635655236E-009
  0.18333333333333335       0.35000000000000003        6.1175025022037278E-006   1.3282250774343854E-003  -3.4929750228751251E-003   20.498240211712965        4.2684997073397235E-009
  0.18333333333333335       0.38333333333333336       -6.7863451224427938E-006   1.0684094673438650E-003  -3.6215840341334324E-003   21.830236602699166        4.1271996887790041E-009
  0.18333333333333335       0.41666666666666669       -1.5116386427801401E-005   7.8787922144292802E-004  -3.6838974014234633E-003   23.090439344302048        3.9968576300182523E-009