 TITLE = "Cavity_simu"
 Variables="X","Y","P","U","V","T","div"
 Zone I=          30 , J=          30 , F = POINT
   1.6666666666666663E-002   1.6666666666666663E-002   3.0914898114168854E-004   1.6881548899428056E-005  -1.6881381803696314E-005   5.9422940449959665        1.0025743904561527E-008
   1.6666666666666663E-002   5.0000000000000003E-002   2.6661840675473877E-004   4.4808502790009390E-005  -7.8571142521145849E-005   5.9872021294031441        7.4325753702739195E-009
   1.6666666666666663E-002   8.3333333333333329E-002   2.2675905582774652E-004   5.8957976954582721E-005  -1.8233737645052578E-004   6.0859086521751369        7.3163373606049964E-009
   1.6666666666666663E-002  0.11666666666666665        1.9002488146178251E-004   6.4585374750715735E-005  -3.0588048679319957E-004   6.2407860502814403        7.1654201192275502E-009
   1.6666666666666663E-002  0.15000000000000002        1.5636449457244366E-004   6.6583280341712392E-005  -4.3704890606618572E-004   6.4467247140800445        6.9837464014912976E-009
   1.6666666666666663E-002  0.18333333333333335        1.2570888647701694E-004   6.7489110708324781E-005  -5.7112106778820231E-004   6.6932247962938165        6.7759348331905556E-009
   1.6666666666666663E-002  0.21666666666666667        9.8107025849390554E-005   6.8089290576302106E-005  -7.0669924702135723E-004   6.9676226667813630        6.5471534886271665E-009
   1.6666666666666663E-002  0.25000000000000000        7.3713360081025236E-005   6.8290841366532636E-005  -8.4307916479573050E-004   7.2579675310513307        6.3029541967629665E-009
   1.6666666666666663E-002  0.28333333333333333        5.2736579503434847E-005   6.7721394789078569E-005  -9.7909119508396100E-004   7.5546907450133123        6.0490886423167356E-009
   1.6666666666666663E-002  0.31666666666666665        3.5392305086211674E-005   6.6030984486027561E-005  -1.1128433770191183E-003   7.8510054342944064        5.7913082862279253E-009
   1.6666666666666663E-002  0.35000000000000003        2.1868617236698315E-005   6.2998660043935356E-005  -1.2418728327747279E-003   8.1424881870660499        5.5351529193448101E-009
   1.6666666666666663E-002  0.38333333333333336        1.2302023014115585E-005   5.8542504644087975E-005  -1.3634138171145773E-003   8.4263778469767825        5.2857375043742494E-009
   1.6666666666666663E-002  0.41666666666666669        6.7606843441678534E-006   5.2691186512064095E-005  -1.4746473360492170E-003   8.7009399047248479        5.0475532512375687E-009
   1.6666666666666663E-002  0.45000000000000001        5.2332789651390694E-006   4.5543474440034989E-005  -1.5728818324703649E-003   8.9650166924549684        4.8243038140716177E-009
   1.6666666666666663E-002  0.48333333333333334        7.6224665739258647E-006   3.7228131711336658E-005  -1.6556532812367036E-003   9.2177414186299931        4.6187981633805109E-009
   1.6666666666666663E-002  0.51666666666666661        1.3741573690030249E-005   2.7872258361727713E-005  -1.7207535204478985E-003   9.4583507686637294        4.4329139974649129E-009
   1.6666666666666663E-002  0.54999999999999993        2.3312724782687277E-005   1.7583258479174863E-005  -1.7662088922797078E-003   9.6860444175961220        4.2676316066095343E-009
   1.6666666666666663E-002  0.58333333333333326        3.5964811012212936E-005   6.4453578566267635E-006  -1.7902373687695918E-003   9.8998681897640406        4.1231234476440080E-009
   1.6666666666666663E-002  0.61666666666666659        5.1230377658656933E-005  -5.4732329588717891E-006  -1.7912093583006519E-003   10.098618555441186        3.9988782468735121E-009
   1.6666666666666663E-002  0.64999999999999991        6.8541315534916534E-005  -1.8110222146476688E-005  -1.7676257716500087E-003   10.280774146695931        3.8938394425046957E-009
   1.6666666666666663E-002  0.68333333333333324        8.7223616380841199E-005  -3.1405379592563940E-005  -1.7181100415712381E-003   10.444457015307858        3.8065443514270769E-009
   1.6666666666666663E-002  0.71666666666666656        1.0649090247040043E-004  -4.5309915084306117E-005  -1.6413946211976845E-003   10.587416204473881        3.7352566647358421E-009
   1.6666666666666663E-002  0.75000000000000000        1.2543466867951555E-004  -5.9808199678995141E-005  -1.5362763828786141E-003   10.707013429919940        3.6780894827233290E-009
   1.6666666666666663E-002  0.78333333333333333        1.4300628216351902E-004  -7.4933313807119920E-005  -1.4015347475390414E-003   10.800183801864662        3.6331179748688713E-009
   1.6666666666666663E-002  0.81666666666666665        1.5798264011310180E-004  -9.0722254596873372E-005  -1.2358790586083895E-003   10.863363964197401        3.5984815422579475E-009
   1.6666666666666663E-002  0.84999999999999998        1.6890638809307477E-004  -1.0698420126989697E-004  -1.0381724832256858E-003   10.892474713099471        3.5724744551490772E-009
   1.6666666666666663E-002  0.88333333333333330        1.7399849565394280E-004  -1.2259861443799649E-004  -8.0858954874948950E-004   10.883328917121196        3.5536237164707218E-009
   1.6666666666666663E-002  0.91666666666666663        1.7107002353284435E-004  -1.3369255835666934E-004  -5.5229825771522341E-004   10.833566847085939        3.5407522972624728E-009
   1.6666666666666663E-002  0.94999999999999996        1.5755010416115155E-004  -1.2915793451208035E-004  -2.8944764695017070E-004   10.748943966260514        3.5330258848706442E-009
   1.6666666666666663E-002  0.98333333333333317        1.3101258643392281E-004  -8.0144767944135322E-005  -8.0144826777162788E-005   10.660257233626714        3.5299816481329516E-009
   5.0000000000000003E-002   1.6666666666666663E-002   3.1040509187030399E-004   8.0390915906744864E-005  -4.6627693521115901E-005   6.8524859606246071        7.4752063709999927E-009
   5.0000000000000003E-002   5.0000000000000003E-002   2.6886682393541234E-004   1.9196625304399034E-004  -1.9560455258007585E-004   6.9387600104246756        4.9155676525719505E-009
   5.0000000000000003E-002   8.3333333333333329E-002   2.3009926064402291E-004   2.5094962271623907E-004  -4.3098730634857137E-004   7.1349382356075104        4.8345853275594264E-009
   5.0000000000000003E-002  0.11666666666666665        1.9406838156971320E-004   2.7704821503242547E-004  -7.1189828126248344E-004   7.4471878057955188        4.7308640043625116E-009
   5.0000000000000003E-002  0.15000000000000002        1.6074833006985123E-004   2.8728135974942785E-004  -1.0138903902272686E-003   7.8644179089367805        4.6070687143712208E-009
   5.0000000000000003E-002  0.18333333333333335        1.3018872556369367E-004   2.9103760459450951E-004  -1.3240644212480525E-003   8.3636808238748870        4.4663160305574712E-009
   5.0000000000000003E-002  0.21666666666666667        1.0252376921689573E-004   2.9164178342242744E-004  -1.6355868603891194E-003   8.9177006854794776        4.3120809579272334E-009
   5.0000000000000003E-002  0.25000000000000000        7.7946451609570394E-005   2.8912221838132827E-004  -1.9435904573043322E-003   9.5013307873776967        4.1480914397817870E-009
   5.0000000000000003E-002  0.28333333333333333        5.6676633465056957E-005   2.8236009944800989E-004  -2.2430481673840997E-003   10.095043813791353        3.9782094563012294E-009
   5.0000000000000003E-002  0.31666666666666665        3.8933493626324544E-005   2.7028169642354972E-004  -2.5281850749636543E-003   10.685483833232643        3.8062981152359177E-009
   5.0000000000000003E-002  0.35000000000000003        2.4912037613980884E-005   2.5232029838248294E-004  -2.7927276566701914E-003   11.264283122478625        3.6360760721776408E-009
   5.0000000000000003E-002  0.38333333333333336        1.4761826944565348E-005   2.2846770181687403E-004  -3.0304332090428281E-003   11.826419678292696        3.4709643449357119E-009
   5.0000000000000003E-002  0.41666666666666669        8.5682695866188636E-006   1.9914309450345873E-004  -3.2355765099691463E-003   12.368854644004116        3.3139382791744221E-009
   5.0000000000000003E-002  0.45000000000000001        6.3381536955554207E-006   1.6500561151896529E-004  -3.4032557860650100E-003   12.889634935418655        3.1674034410913987E-009
   5.0000000000000003E-002  0.48333333333333334        7.9904684398655952E-006   1.2677854218685376E-004  -3.5294966241260590E-003   13.387350578771139        3.0331181858668510E-009
   5.0000000000000003E-002  0.51666666666666661        1.3351945032405732E-005   8.5123822772062088E-005  -3.6111981098505752E-003   13.860779477351068        2.9121780575121908E-009
   5.0000000000000003E-002  0.54999999999999993        2.2155454741181780E-005   4.0583696290942676E-005  -3.6459944999444587E-003   14.308608682819171        2.8050608934693418E-009
   5.0000000000000003E-002  0.58333333333333326        3.4039065965708553E-005  -6.4145782955511899E-006  -3.6321062933220094E-003   14.729191373551712        2.7117133703444263E-009
   5.0000000000000003E-002  0.61666666666666659        4.8544138421068236E-005  -5.5512633827573935E-005  -3.5682347423472236E-003   15.120341634129254        2.6316556620518960E-009
   5.0000000000000003E-002  0.64999999999999991        6.5111845606603193E-005  -1.0636529542185223E-004  -3.4535236367128040E-003   15.479181421058232        2.5640857735653722E-009
   5.0000000000000003E-002  0.68333333333333324        8.3078360558198823E-005  -1.5860704808037389E-004  -3.2875824121543166E-003   15.802044731616784        2.5079747939873998E-009
   5.0000000000000003E-002  0.71666666666666656        1.0166908559033119E-004  -2.1185944987619750E-004  -3.0705464207160509E-003   16.084421760305101        2.4621512441716509E-009
   5.0000000000000003E-002  0.75000000000000000        1.1999146974518661E-004  -2.6576635281937643E-004  -2.8031567660882963E-003   16.320898544839149        2.4253757491959904E-009
   5.0000000000000003E-002  0.78333333333333333        1.3702432040519515E-004  -3.1998057493577540E-004  -2.4868927849423165E-003   16.505029206881261        2.3964077475874257E-009
   5.0000000000000003E-002  0.81666666666666665        1.5160015791075573E-004  -3.7390647057857976E-004  -2.1243167967280579E-003   16.629105005219785        2.3740656680121264E-009
   5.0000000000000003E-002  0.84999999999999998        1.6237894470268053E-004  -4.2577655239564263E-004  -1.7200466066316054E-003   16.683953389575031        2.3572805582516843E-009
   5.0000000000000003E-002  0.88333333333333330        1.6782277841394897E-004  -4.7019110772119444E-004  -1.2832444995568462E-003   16.659456901559871        2.3451419885883729E-009
   5.0000000000000003E-002  0.91666666666666663        1.6621382760677756E-004  -4.9229603245240256E-004  -8.3333962693795641E-004   16.548052977440221        2.3369354854030355E-009
   5.0000000000000003E-002  0.94999999999999996        1.5582471332939842E-004  -4.5464200324219406E-004  -4.1210249916244106E-004   16.357657750200836        2.3321695998002046E-009
   5.0000000000000003E-002  0.98333333333333317        1.3540446378107371E-004  -2.6817766008253201E-004  -1.0788816303745717E-004   16.150996080313131        2.3305917499702455E-009
   8.3333333333333329E-002   1.6666666666666663E-002   3.0893803814663367E-004   1.9065766476647050E-004  -6.3638806878995479E-005   7.7100113243478718        7.4323704846862571E-009
   8.3333333333333329E-002   5.0000000000000003E-002   2.6823492326629047E-004   4.3093889859128446E-004  -2.6390093039663329E-004   7.8322464211819209        4.8866808117359328E-009
   8.3333333333333329E-002   8.3333333333333329E-002   2.3039029384124411E-004   5.6081791132845781E-004  -5.7735878674385218E-004   8.1195728985672009        4.8057941202939158E-009
   8.3333333333333329E-002  0.11666666666666665        1.9500881985929066E-004   6.2179487040551931E-004  -9.5106243792847356E-004   8.5832699426339598        4.7019632996164740E-009
   8.3333333333333329E-002  0.15000000000000002        1.6199577947249925E-004   6.4632380349231465E-004  -1.3528591177842521E-003   9.2058919417890870        4.5778290047593373E-009
   8.3333333333333329E-002  0.18333333333333335        1.3145113002661630E-004   6.5289984340053731E-004  -1.7635894678506188E-003   9.9508007113589496        4.4364920903650074E-009
   8.3333333333333329E-002  0.21666666666666667        1.0357989138039112E-004   6.4875917398660881E-004  -2.1710463664744392E-003   10.774820963777762        4.2814302467913956E-009
   8.3333333333333329E-002  0.25000000000000000        7.8633737335043517E-005   6.3473532032581501E-004  -2.5657729811011344E-003   11.638860910019350        4.1164029528778512E-009
   8.3333333333333329E-002  0.28333333333333333        5.6878381235987786E-005   6.0934993309058193E-004  -2.9389179368076715E-003   12.513348870682982        3.9453414216183980E-009
   8.3333333333333329E-002  0.31666666666666665        3.8572768365710172E-005   5.7122713350447462E-004  -3.2817160415838124E-003   13.378723620275373        3.7722190805028477E-009
   8.3333333333333329E-002  0.35000000000000003        2.3948883605195697E-005   5.2005422845006306E-004  -3.5858525801009131E-003   14.223210604544413        3.6008987770730361E-009
   8.3333333333333329E-002  0.38333333333333336        1.3189025092683086E-005   4.5665134239996285E-004  -3.8440643626639816E-003   15.040078597599575        3.4349585988080467E-009
   8.3333333333333329E-002  0.41666666666666669        6.4037903317147215E-006   3.8262907362102903E-004  -4.0505904564821591E-003   15.825517047630461        3.2775085709660368E-009
   8.3333333333333329E-002  0.45000000000000001        3.6155654855671930E-006   2.9993803990778143E-004  -4.2013293730613927E-003   16.577313844731812        3.1310271025181136E-009
   8.3333333333333329E-002  0.48333333333333334        4.7500128528391317E-006   2.1048160986672482E-004  -4.2937238255889350E-003   17.294074708430379        2.9972570462881432E-009
   8.3333333333333329E-002  0.51666666666666661        9.6346546124045128E-006   1.1587617918233047E-004  -4.3264775669587790E-003   17.974694699473176        2.8771934582560131E-009
   8.3333333333333329E-002  0.54999999999999993        1.8001313488105916E-005   1.7379344537359208E-005  -4.2992289920950038E-003   18.617916541905409        2.7711621454571539E-009
   8.3333333333333329E-002  0.58333333333333326        2.9488697949411149E-005  -8.4042060778247363E-005  -4.2122851816997313E-003   19.221927005077003        2.6789501584960351E-009
   8.3333333333333329E-002  0.61666666666666659        4.3642535572273013E-005  -1.8756229281947372E-004  -4.0664794141621885E-003   19.784002500072880        2.5999447568827994E-009
   8.3333333333333329E-002  0.64999999999999991        5.9912576123676521E-005  -2.9233366743603714E-004  -3.8631723166415071E-003   20.300226831219579        2.5332547873638256E-009
   8.3333333333333329E-002  0.68333333333333324        7.7647658610986465E-005  -3.9736857797231925E-004  -3.6043834712418095E-003   20.765287832731900        2.4778079137088849E-009
   8.3333333333333329E-002  0.71666666666666656        9.6091195799746248E-005  -5.0149342415041270E-004  -3.2930237938412210E-003   21.172329907528628        2.4324276620690810E-009
   8.3333333333333329E-002  0.75000000000000000        1.1437949367810519E-004  -6.0333973725134704E-004  -2.9332059278319262E-003   21.512806689963639        2.3958971282628250E-009
   8.3333333333333329E-002  0.78333333333333333        1.3154433421324908E-004  -7.0122654432389704E-004  -2.5306503954128884E-003   21.776260920558034        2.3670149243426586E-009
   8.3333333333333329E-002  0.81666666666666665        1.4652004938496443E-004  -7.9258966236893564E-004  -2.0932970644130964E-003   21.950010994515154        2.3446460658410606E-009
   8.3333333333333329E-002  0.84999999999999998        1.5815643855676811E-004  -8.7225889546172549E-004  -1.6324015629237639E-003   22.018994461994790        2.3277684554207090E-009
   8.3333333333333329E-002  0.88333333333333330        1.6524828442162303E-004  -9.2823814663452317E-004  -1.1646741322573605E-003   21.966893284592725        2.3155140565361831E-009
   8.3333333333333329E-002  0.91666666666666663        1.6662130912842971E-004  -9.3242311480957519E-004  -7.1640472852584330E-004   21.782103296718507        2.3072028194209837E-009
   8.3333333333333329E-002  0.94999999999999996        1.6137630308123526E-004  -8.2126855939166840E-004  -3.3088806315011740E-004   21.478413810401253        2.3023677530459308E-009
   8.3333333333333329E-002  0.98333333333333317        1.4946207216368158E-004  -4.5635954735357196E-004  -8.0293801422940298E-005   21.155430400504038        2.3007696997590088E-009
  0.11666666666666665        1.6666666666666663E-002   3.0393173301435761E-004   3.2371096643914004E-004  -6.9414247851409477E-005   8.5060821082629126        7.3841653902562143E-009
  0.11666666666666665        5.0000000000000003E-002   2.6432487407885804E-004   7.1838289992896961E-004  -2.8964901805307130E-004   8.6578723921713632        4.8542466140472085E-009
  0.11666666666666665        8.3333333333333329E-002   2.2737929513492948E-004   9.3366757955891020E-004  -6.3648450927669556E-004   9.0246698883200569        4.7731161210984308E-009
  0.11666666666666665       0.11666666666666665        1.9255881621980494E-004   1.0369368978320435E-003  -1.0507722379233862E-003   9.6235389866954097        4.6686663354722491E-009
  0.11666666666666665       0.15000000000000002        1.5975341263658064E-004   1.0772393558003811E-003  -1.4950328296027102E-003   10.431111841710807        4.5435106510449685E-009
  0.11666666666666665       0.18333333333333335        1.2911744026582300E-004   1.0827880439694877E-003  -1.9451059331039170E-003   11.397315256562344        4.4007348494468079E-009
  0.11666666666666665       0.21666666666666667        1.0093080229022412E-004   1.0654638597653028E-003  -2.3842416314529833E-003   12.463245079795293        4.2438283061330129E-009
  0.11666666666666665       0.25000000000000000        7.5519859975088841E-005   1.0278054485065166E-003  -2.7992895521478907E-003   13.576037893256039        4.0766060440539098E-009
  0.11666666666666665       0.28333333333333333        5.3220265414315128E-005   9.6901066105448792E-004  -3.1788751852282028E-003   14.696282600619307        3.9031150898122258E-009
  0.11666666666666665       0.31666666666666665        3.4354257155038722E-005   8.8853494019302507E-004  -3.5130453593013419E-003   15.798442617054267        3.7275149893795101E-009
  0.11666666666666665       0.35000000000000003        1.9205923103406458E-005   7.8746818506871257E-004  -3.7936303398489147E-003   16.867607625819684        3.5539187417596430E-009
  0.11666666666666665       0.38333333333333336        7.9928226492775010E-006   6.6850201620253678E-004  -4.0146829547743623E-003   17.895698759292319        3.3861863348028098E-009
  0.11666666666666665       0.41666666666666669        8.4091880023984508E-007   5.3526329235798408E-004  -4.1726415313901727E-003   18.878631785155790        3.2276789526698713E-009
  0.11666666666666665       0.45000000000000001       -2.2301713700199760E-006   3.9153787245179745E-004  -4.2661364541380399E-003   19.814579714708014        3.0810175862417549E-009
  0.11666666666666665       0.48333333333333334       -1.3095323863373710E-006   2.4067432225835010E-004  -4.2955343439257700E-003   20.702926188486732        2.9479204250197275E-009
  0.11666666666666665       0.51666666666666661        3.4118885894146530E-006   8.5285916764824286E-005  -4.2623828583372610E-003   21.543516705649253        2.8291960948480244E-009
  0.11666666666666665       0.54999999999999993        1.1651338157760664E-005  -7.2749620797092664E-005  -4.1689120187416336E-003   22.336006263472513        2.7248949737226913E-009
  0.11666666666666665       0.58333333333333326        2.3041827702341018E-005  -2.3206730172996220E-004  -4.0177014426918383E-003   23.079254231882761        2.6345267842287079E-009
  0.11666666666666665       0.61666666666666659        3.7133965975742610E-005  -3.9147723021633882E-004  -3.8115668573694569E-003   23.770784592605548        2.5572589861660999E-009
  0.11666666666666665       0.64999999999999991        5.3392118193491601E-005  -5.4962085558441756E-004  -3.5536716596362471E-003   24.406337615913838        2.4920601814776289E-009
  0.11666666666666665       0.68333333333333324        7.1188016405730436E-005  -7.0470503238433384E-004  -3.2478366967936215E-003   24.979519979684756        2.4377927836105595E-009
  0.11666666666666665       0.71666666666666656        8.9796979356850397E-005  -8.5434963670618963E-004  -2.8990035448713961E-003   25.481534398087287        2.3932730276732261E-009
  0.11666666666666665       0.75000000000000000        1.0840244191213183E-004  -9.9550350926954842E-004  -2.5138012666581651E-003   25.900949937660027        2.3573149942474059E-009
  0.11666666666666665       0.78333333333333333        1.2611336548607187E-004  -1.1242447743696250E-003  -2.1011746395300009E-003   26.223483030067293        2.3287693232121320E-009
  0.11666666666666665       0.81666666666666665        1.4199672345722802E-004  -1.2350398190195397E-003  -1.6730594280502690E-003   26.431863241937933        2.3065612180656059E-009
  0.11666666666666665       0.84999999999999998        1.5512566273448062E-004  -1.3186161564059449E-003  -1.2451473574663845E-003   26.506240323461906        2.2897278795230847E-009
  0.11666666666666665       0.88333333333333330        1.6464889049749935E-004  -1.3568884831206792E-003  -8.3786703719467676E-004   26.426704779830914        2.2774537290770613E-009
  0.11666666666666665       0.91666666666666663        1.6991062520507063E-004  -1.3121706775626439E-003  -4.7773838886577748E-004   26.182377537745886        2.2691008984970784E-009
  0.11666666666666665       0.94999999999999996        1.7071020754440570E-004  -1.1059027654511983E-003  -1.9887313304717640E-004   25.798303169305768        2.2642322339977428E-009
  0.11666666666666665       0.98333333333333317        1.6787619220024684E-004  -5.7892292831087657E-004  -4.2269655590941829E-005   25.405664692779478        2.2626249506808860E-009
  0.15000000000000002        1.6666666666666663E-002   2.9537822362900442E-004   4.5961502948081853E-004  -6.6489569909573560E-005   9.2384634202281308        7.3326763367839720E-009
  0.15000000000000002        5.0000000000000003E-002   2.5715324955170518E-004   1.0176036144604673E-003  -2.8137917076829155E-004   9.4125615120135819        4.8196794454752334E-009
  0.15000000000000002        8.3333333333333329E-002   2.2113927304842298E-004   1.3247820259663372E-003  -6.2487852073369200E-004   9.8424708883429570        4.7379518121337671E-009
  0.15000000000000002       0.11666666666666665        1.8682685742310570E-004   1.4730073829615220E-003  -1.0377754100890728E-003   10.551179231676455        4.6323557524596826E-009
  0.15000000000000002       0.15000000000000002        1.5416809292611585E-004   1.5273792223434524E-003  -1.4797248642490039E-003   11.510703591707188        4.5054649143450032E-009
  0.15000000000000002       0.18333333333333335        1.2340460109017218E-004   1.5259191434043265E-003  -1.9229224298915706E-003   12.659307889700294        4.3603377800766063E-009
  0.15000000000000002       0.21666666666666667        9.4909535697702284E-005   1.4858935605769298E-003  -2.3473472450327992E-003   13.923949626998041        4.2004693404096294E-009
  0.15000000000000002       0.25000000000000000        6.9099052040857474E-005   1.4127447164405003E-003  -2.7376680172394464E-003   15.239022069043614        4.0297396721594714E-009
  0.15000000000000002       0.28333333333333333        4.6390291902001107E-005   1.3077486551258293E-003  -3.0817593818009297E-003   16.555726936512272        3.8523509642701681E-009
  0.15000000000000002       0.31666666666666665        2.7172299396216518E-005   1.1725724342421138E-003  -3.3703644432529793E-003   17.842673998021890        3.6727334585054394E-009
  0.15000000000000002       0.35000000000000003        1.1773438617478400E-005   1.0108860309811286E-003  -3.5972345618409396E-003   19.081913359662948        3.4953911189072873E-009
  0.15000000000000002       0.38333333333333336        4.2785326053459900E-007   8.2809992011913757E-004  -3.7591974674086601E-003   20.264301650650797        3.3246547442161711E-009
  0.15000000000000002       0.41666666666666669       -6.7485052431929146E-006   6.3031750261975639E-004  -3.8558907865903344E-003   21.386024274681631        3.1643332713219424E-009
  0.15000000000000002       0.45000000000000001       -9.7649451986186908E-006   4.2325111658878954E-004  -3.8891631100687780E-003   22.446411266086947        3.0173173741444501E-009
  0.15000000000000002       0.48333333333333334       -8.7467990899566045E-006   2.1149332599459565E-004  -3.8622972692952751E-003   23.446549067873196        2.8852852479183816E-009
  0.15000000000000002       0.51666666666666661       -3.9169208633348462E-006  -1.7328260289027861E-006  -3.7792488253079767E-003   24.388238664863863        2.7686977697484461E-009
  0.15000000000000002       0.54999999999999993        4.4229514551660985E-006  -2.1439265483550222E-004  -3.6440577049063924E-003   25.273083185036043        2.6671156940979990E-009
  0.15000000000000002       0.58333333333333326        1.5903778293489393E-005  -4.2516481557635418E-004  -3.4605275563025684E-003   26.101655684053384        2.5795915854776030E-009
  0.15000000000000002       0.61666666666666659        3.0090771917902226E-005  -6.3283505195748670E-004  -3.2322066347650995E-003   26.872762547540631        2.5049612939476162E-009
  0.15000000000000002       0.64999999999999991        4.6476618049266402E-005  -8.3570561532248172E-004  -2.9626590844143543E-003   27.582820925269580        2.4420041128125902E-009
  0.15000000000000002       0.68333333333333324        6.4471951143152872E-005  -1.0311280510241229E-003  -2.6559861061896677E-003   28.225352402609268        2.3895104575566428E-009
  0.15000000000000002       0.71666666666666656        8.3401076732478752E-005  -1.2152103664798931E-003  -2.3175353502503807E-003   28.790584367083504        2.3463049472066677E-009
  0.15000000000000002       0.75000000000000000        1.0251140805210082E-004  -1.3826649287838224E-003  -1.9547153223731396E-003   29.265159525714601        2.3112566877731000E-009
  0.15000000000000002       0.78333333333333333        1.2100323402715629E-004  -1.5266209327186497E-003  -1.5778042169607674E-003   29.632006017636460        2.2832932090183222E-009
  0.15000000000000002       0.81666666666666665        1.3808225358848846E-004  -1.6379732981906072E-003  -1.2006096379196531E-003   29.870583783202633        2.2614215118565983E-009
  0.15000000000000002       0.84999999999999998        1.5303240312210091E-004  -1.7034039551207759E-003  -8.4080027890987247E-004   29.958181450615125        2.2447554075960552E-009
  0.15000000000000002       0.88333333333333330        1.6530656791962457E-004  -1.7005029264820096E-003  -5.1967820636405256E-004   29.874119894858058        2.2325449353793880E-009
  0.15000000000000002       0.91666666666666663        1.7465051278220203E-004  -1.5873798620761399E-003  -2.6098307676307095E-004   29.611473840217460        2.2242037144362681E-009
  0.15000000000000002       0.94999999999999996        1.8132807027764335E-004  -1.2829476110180814E-003  -8.7594152886836331E-005   29.206604454813725        2.2193305413906184E-009
  0.15000000000000002       0.98333333333333317        1.8659536620623391E-004  -6.3363403645895987E-004  -1.2441527229599800E-005   28.806617354162722        2.2177225522581473E-009
  0.18333333333333335        1.6666666666666663E-002   2.8379157882798341E-004   5.8350431385661809E-004  -5.7399470915784676E-005   9.9082327878392551        7.2803501452271824E-009
  0.18333333333333335        5.0000000000000003E-002   2.4717220807845181E-004   1.2994148078059238E-003  -2.4820994415606685E-004   10.096958532036355        4.7846294270320611E-009
  0.18333333333333335        8.3333333333333329E-002   2.1215696100583393E-004   1.6987874613387443E-003  -5.6052690550506090E-004   10.570747346547355        4.7019474685300322E-009
  0.18333333333333335       0.11666666666666665        1.7837529776217119E-004   1.8919905174146347E-003  -9.4061827485972509E-004   11.358259020039890        4.5946734663487865E-009
  0.18333333333333335       0.15000000000000002        1.4590312927034474E-004   1.9578349565355768E-003  -1.3481073860481970E-003   12.428892910589898        4.4653159295138245E-009
  0.18333333333333335       0.18333333333333335        1.1510134263271075E-004   1.9438289192635705E-003  -1.7532750363237720E-003   13.712207416310040        4.3168750015615265E-009
  0.18333333333333335       0.21666666666666667        8.6453432994713374E-005   1.8734616095448444E-003  -2.1343277621679981E-003   15.123731309612948        4.1528201068924409E-009
  0.18333333333333335       0.25000000000000000        6.0471971622909222E-005   1.7564550341322854E-003  -2.4752850839526008E-003   16.586873066202251        3.9770778736264445E-009
  0.18333333333333335       0.28333333333333333        3.7651009034294820E-005   1.5976123623533162E-003  -2.7647674834238856E-003   18.044230580594892        3.7940217165882695E-009
  0.18333333333333335       0.31666666666666665        1.8429963001306277E-005   1.4020280663700696E-003  -2.9954815125349133E-003   19.458785795478807        3.6084357706717141E-009
  0.18333333333333335       0.35000000000000003        3.1554822824306553E-006   1.1767706321673690E-003  -3.1639513905618302E-003   20.809690591802688        3.4253988057467155E-009
  0.18333333333333335       0.38333333333333336       -7.9519692465752276E-006   9.3033876203131810E-004  -3.2701117031683196E-003   22.087078853204751        3.2500079580680130E-009
  0.18333333333333335       0.41666666666666669       -1.4814559969121166E-005   6.7126712790599875E-004  -3.3166066374206017E-003   23.288014289942488        3.0868720340276878E-009