 TITLE = "Cavity_simu"
 Variables="X","Y","P","U","V","T","div"
 Zone I=          30 , J=          30 , F = POINT
   1.6666666666666663E-002   1.6666666666666663E-002   3.0741356782399256E-004   1.8078224478800015E-005  -1.8078168353129396E-005   5.9944185502651930        3.3675402371161067E-009
   1.6666666666666663E-002   5.0000000000000003E-002   2.6503728046951825E-004   4.6375754931683988E-005  -8.2532049096738463E-005   6.0321570305108265        2.5524722591617477E-009
   1.6666666666666663E-002   8.3333333333333329E-002   2.2547047410155331E-004   5.9827698762822542E-005  -1.8873541727052503E-004   6.1172732417382818        2.5787709398428227E-009
   1.6666666666666663E-002  0.11666666666666665        1.8908767326955166E-004   6.4400353792711361E-005  -3.1296338349578513E-004   6.2525609794546444        2.6010454883679257E-009
   1.6666666666666663E-002  0.15000000000000002        1.5577009200305305E-004   6.5295172063359035E-005  -4.4265882248928270E-004   6.4334407007986432        2.6107088817173274E-009
   1.6666666666666663E-002  0.18333333333333335        1.2539976192235688E-004   6.5160503127495103E-005  -5.7311441086466011E-004   6.6503617071504504        2.5982197218374359E-009
   1.6666666666666663E-002  0.21666666666666667        9.7986951420242754E-005   6.4850271908971282E-005  -7.0312510003732410E-004   6.8920531884789273        2.5536084219401900E-009
   1.6666666666666663E-002  0.25000000000000000        7.3651228241792887E-005   6.4349703184278265E-005  -8.3232499145346334E-004   7.1482193874627669        2.4670181934631497E-009
   1.6666666666666663E-002  0.28333333333333333        5.2568726593250046E-005   6.3369922972380432E-005  -9.6004453767257179E-004   7.4109804699800375        2.3292348206443991E-009
   1.6666666666666663E-002  0.31666666666666665        3.4927038078335244E-005   6.1627276856775622E-005  -1.0850416631447883E-003   7.6751046826643448        2.1321815519767529E-009
   1.6666666666666663E-002  0.35000000000000003        2.0894894016487262E-005   5.8931846461938311E-005  -1.2056007197711381E-003   7.9375046518982293        1.8693602971998902E-009
   1.6666666666666663E-002  0.38333333333333336        1.0602752768836959E-005   5.5189755551916418E-005  -1.3197222650252207E-003   8.1965058738652257        1.5362260391733884E-009
   1.6666666666666663E-002  0.41666666666666669        4.1298026655636628E-006   5.0377221812071324E-005  -1.4252891979439812E-003   8.4512074899285690        1.1304875794163061E-009
   1.6666666666666663E-002  0.45000000000000001        1.4947599834530663E-006   4.4510169212649147E-005  -1.5201765592550403E-003   8.7010435206372296        6.5233211107157407E-010
   1.6666666666666663E-002  0.48333333333333334        2.6490337358127307E-006   3.7617479675205957E-005  -1.6023041955278202E-003   8.9455210882918355        1.0457239588146372E-010
   1.6666666666666663E-002  0.51666666666666661        7.4710808458287313E-006   2.9721106604726951E-005  -1.6696427885196695E-003   9.1840686062149075       -5.0728738050509481E-010
   1.6666666666666663E-002  0.54999999999999993        1.5760709398224938E-005   2.0824761902584499E-005  -1.7201886850663714E-003   9.4159352759338830       -1.1750760421126716E-009
   1.6666666666666663E-002  0.58333333333333326        2.7232173409070577E-005   1.0911337250562627E-005  -1.7519248352721524E-003   9.6401073462698967       -1.8880819811252503E-009
   1.6666666666666663E-002  0.61666666666666659        4.1505233990577521E-005  -5.2770591063217101E-008  -1.7627834772878772E-003   9.8552266359686378       -2.6332915390877049E-009
   1.6666666666666663E-002  0.64999999999999991        5.8093770670217795E-005  -1.2109997368116212E-005  -1.7506208098125881E-003   10.059507084973026       -3.3957418908020509E-009
   1.6666666666666663E-002  0.68333333333333324        7.6391730950318482E-005  -2.5304732116949218E-005  -1.7132062062395646E-003   10.250646819749431       -4.1589806232169430E-009
   1.6666666666666663E-002  0.71666666666666656        9.5655921424345181E-005  -3.9679506810591904E-005  -1.6482221183886153E-003   10.425729874567176       -4.9056148921679255E-009
   1.6666666666666663E-002  0.75000000000000000        1.1498419098501862E-004  -5.5270318650875689E-005  -1.5532724683194805E-003   10.581108175634903       -5.6179250626509081E-009
   1.6666666666666663E-002  0.78333333333333333        1.3328603508756288E-004  -7.2082773541580486E-005  -1.4259195744009828E-003   10.712259642888421       -6.2785124547298787E-009
   1.6666666666666663E-002  0.81666666666666665        1.4924127023012863E-004  -9.0000463073848885E-005  -1.2638365569432421E-003   10.813652550792769       -6.8709488662901941E-009
   1.6666666666666663E-002  0.84999999999999998        1.6124320835854476E-004  -1.0851282625940436E-004  -1.0653235051323907E-003   10.878757199814912       -7.3803952385306792E-009
   1.6666666666666663E-002  0.88333333333333330        1.6733070956612730E-004  -1.2600475014472060E-004  -8.3080618163750464E-004   10.900644950850726       -7.7941590993779730E-009
   1.6666666666666663E-002  0.91666666666666663        1.6514147186144355E-004  -1.3799607022522246E-004  -5.6680562620628385E-004   10.874358399616325       -8.1021642381329251E-009
   1.6666666666666663E-002  0.94999999999999996        1.5200346146080354E-004  -1.3283914158955445E-004  -2.9597068771609187E-004   10.803965735100981       -8.2973108574829757E-009
   1.6666666666666663E-002  0.98333333333333317        1.2553306227072668E-004  -8.1565981802704467E-005  -8.1565842207525843E-005   10.720626356664352       -8.3757107170040479E-009
   5.0000000000000003E-002   1.6666666666666663E-002   3.0861270249107659E-004   8.4558984063488261E-005  -4.8402492553933704E-005   6.9532233668465073        2.5531172722845219E-009
   5.0000000000000003E-002   5.0000000000000003E-002   2.6727826490399276E-004   1.9714628799185756E-004  -2.0119973454205180E-004   7.0244731596062389        1.7216583124424201E-009
   5.0000000000000003E-002   8.3333333333333329E-002   2.2879351013542490E-004   2.5328465603013277E-004  -4.3922371354117426E-004   7.1924158310044808        1.7363729759578561E-009
   5.0000000000000003E-002  0.11666666666666665        1.9305983522527350E-004   2.7504461553594530E-004  -7.1909682194055600E-004   7.4640937181487503        1.7469647412698963E-009
   5.0000000000000003E-002  0.15000000000000002        1.6000919307404313E-004   2.8061462022514999E-004  -1.0153649477444772E-003   7.8295877768975943        1.7477372517976653E-009
   5.0000000000000003E-002  0.18333333333333335        1.2966187193235931E-004   2.7995042767788546E-004  -1.3150185872628116E-003   8.2681125350776181        1.7324423284836854E-009
   5.0000000000000003E-002  0.21666666666666667        1.0212739862900324E-004   2.7679147798126581E-004  -1.6117388857311873E-003   8.7555103705642594        1.6946282294094672E-009
   5.0000000000000003E-002  0.25000000000000000        7.7574030256376139E-005   2.7157706635907791E-004  -1.9017074245079998E-003   9.2702186130928510        1.6279936964486152E-009
   5.0000000000000003E-002  0.28333333333333333        5.6195438296448336E-005   2.6355496770551272E-004  -2.1814001536805436E-003   9.7962265752970055        1.5267300704918663E-009
   5.0000000000000003E-002  0.31666666666666665        3.8184644560698007E-005   2.5188428292691623E-004  -2.4468449561118998E-003   10.323290828341349        1.3858355660950616E-009
   5.0000000000000003E-002  0.35000000000000003        2.3714495488170523E-005   2.3603798327914076E-004  -2.6936489325601171E-003   10.845620085301597        1.2013891470194493E-009
   5.0000000000000003E-002  0.38333333333333336        1.2921871378487033E-005   2.1584635137355079E-004  -2.9172900269823420E-003   11.360211700471282        9.7077629615527350E-010
   5.0000000000000003E-002  0.41666666666666669        5.8943568893519164E-006   1.9140247982276482E-004  -3.1134048757233352E-003   11.865506319212962        6.9286449841388098E-010
   5.0000000000000003E-002  0.45000000000000001        2.6594187487318811E-006   1.6293775199398888E-004  -3.2779703078074031E-003   12.360526134529639        3.6813020427156617E-010
   5.0000000000000003E-002  0.48333333333333334        3.1761839286175699E-006   1.3071256117657066E-004  -3.4073653170877405E-003   12.844391803332456       -1.2595003165416507E-012
   5.0000000000000003E-002  0.51666666666666661        7.3292276649361667E-006   9.4941018998457455E-005  -3.4983417315807399E-003   13.316051170345411       -4.1141071192157819E-010
   5.0000000000000003E-002  0.54999999999999993        1.4923137185254868E-005   5.5756152747222693E-005  -3.5479471874473017E-003   13.774094319717745       -8.5671955022802865E-010
   5.0000000000000003E-002  0.58333333333333326        2.5676418900338116E-005   1.3213126923968057E-005  -3.5534443052567489E-003   14.216589998209431       -1.3299535201426183E-009
   5.0000000000000003E-002  0.61666666666666659        3.9213584476725460E-005  -3.2679543990223917E-005  -3.5122608074108653E-003   14.640920668481517       -1.8224087430102065E-009
   5.0000000000000003E-002  0.64999999999999991        5.5054779227197082E-005  -8.1915408760996193E-005  -3.4219914596872372E-003   15.043611470751287       -2.3241452447482491E-009
   5.0000000000000003E-002  0.68333333333333324        7.2602816959858223E-005  -1.3444590658400865E-004  -3.2804596891197061E-003   15.420148321570961       -2.8242953288570849E-009
   5.0000000000000003E-002  0.71666666666666656        9.1127693651493879E-005  -1.9014069562129946E-004  -3.0858416670315894E-003   15.764770196313018       -3.3114312125714918E-009
   5.0000000000000003E-002  0.75000000000000000        1.0974843704743228E-004  -2.4873187509689835E-004  -2.8368688653264062E-003   16.070209098689482       -3.7739735364583638E-009
   5.0000000000000003E-002  0.78333333333333333        1.2741171250592800E-004  -3.0967015228772801E-004  -2.5331731552365759E-003   16.327353900343429       -4.2006194807264752E-009
   5.0000000000000003E-002  0.81666666666666665        1.4286690009771228E-004  -3.7171996310901014E-004  -2.1759496594271560E-003   16.524868594235777       -4.5807680947029805E-009
   5.0000000000000003E-002  0.84999999999999998        1.5464095173327837E-004  -4.3192051240223731E-004  -1.7693359206772431E-003   16.648996720723591       -4.9049216042929000E-009
   5.0000000000000003E-002  0.88333333333333330        1.6102899089526386E-004  -4.8312477358127025E-004  -1.3233259553347278E-003   16.684375628776539       -5.1650429332833481E-009
   5.0000000000000003E-002  0.91666666666666663        1.6014891473461101E-004  -5.0840986260225431E-004  -8.5979313522267938E-004   16.618297882908220       -5.3548524694274624E-009
   5.0000000000000003E-002  0.94999999999999996        1.5016927986213633E-004  -4.6853239189038139E-004  -4.2452148477465312E-004   16.455107833740936       -5.4700508723276586E-009
   5.0000000000000003E-002  0.98333333333333317        1.2985336682964701E-004  -2.7396578902849671E-004  -1.1083373361544761E-004   16.258035318673016       -5.5084584107620294E-009
   8.3333333333333329E-002   1.6666666666666663E-002   3.0687498496030039E-004   1.9775822001497905E-004  -6.4796657767825146E-005   7.8545568996973065        2.5846666439066635E-009
   8.3333333333333329E-002   5.0000000000000003E-002   2.6647131616030606E-004   4.3887825732922983E-004  -2.6693047772411783E-004   7.9532782246415463        1.7412249090492660E-009
   8.3333333333333329E-002   8.3333333333333329E-002   2.2894423704745198E-004   5.6244310697526841E-004  -5.7979680312750833E-004   8.1965920636017611        1.7535434961718499E-009
   8.3333333333333329E-002  0.11666666666666665        1.9385324580157339E-004   6.1402726788663622E-004  -9.4806468138679766E-004   8.5972859013091334        1.7613481194389546E-009
   8.3333333333333329E-002  0.15000000000000002        1.6108566470821574E-004   6.2837162578230517E-004  -1.3385360965721483E-003   9.1400696512228716        1.7590643455744903E-009
   8.3333333333333329E-002  0.18333333333333335        1.3073316770061808E-004   6.2537076037989553E-004  -1.7320596789823953E-003   9.7921326481011697        1.7405911208884239E-009
   8.3333333333333329E-002  0.21666666666666667        1.0299126662059388E-004   6.1340523660588031E-004  -2.1173733573854950E-003   10.515554373920587        1.6996472475966362E-009
   8.3333333333333329E-002  0.25000000000000000        7.8095285157174136E-005   5.9434796996601967E-004  -2.4867893699670462E-003   11.276987994294041        1.6301223912384977E-009
   8.3333333333333329E-002  0.28333333333333333        5.6285880264575255E-005   5.6750979994406228E-004  -2.8338222714523300E-003   12.052218271635613        1.5264136742770829E-009
   8.3333333333333329E-002  0.31666666666666665        3.7790272694447009E-005   5.3186971277937093E-004  -3.1523176340668177E-003   12.826195260530326        1.3837303056846162E-009
   8.3333333333333329E-002  0.35000000000000003        2.2808138204583200E-005   4.8695609722758978E-004  -3.4364171152643759E-003   13.590707351912098        1.1983526723019500E-009
   8.3333333333333329E-002  0.38333333333333336        1.1497548185563732E-005   4.3296755727226753E-004  -3.6808152683833854E-003   14.341678187682747        9.6783776826203649E-010
   8.3333333333333329E-002  0.41666666666666669        3.9613624583882628E-006   3.7057588301631647E-004  -3.8809949733571644E-003   15.077103861378141        6.9117120273659571E-010
   8.3333333333333329E-002  0.45000000000000001        2.3612981926942974E-007   3.0065659747403217E-004  -4.0333217545960370E-003   15.795799045579750        3.6887337281910071E-010
   8.3333333333333329E-002  0.48333333333333334        2.8466809402268835E-007   2.2406146881720550E-004  -4.1349944861227934E-003   16.496720411445356        3.0709714285426237E-012
   8.3333333333333329E-002  0.51666666666666661        3.9917965431463439E-006   1.4147904414062783E-004  -4.1839050179469286E-003   17.178584798724380       -4.0246048030670445E-010
   8.3333333333333329E-002  0.54999999999999993        1.1161433172379196E-005   5.3392941515373335E-005  -4.1784744178720804E-003   17.839593269962780       -8.4229285482115279E-010
   8.3333333333333329E-002  0.58333333333333326        2.1512920402771773E-005  -3.9874962716750264E-005  -4.1175260714961855E-003   18.477173819410364       -1.3094013022289797E-009
   8.3333333333333329E-002  0.61666666666666659        3.4674930257238069E-005  -1.3806322540559950E-004  -4.0002379025703598E-003   19.087717032102013       -1.7952994837283631E-009
   8.3333333333333329E-002  0.64999999999999991        5.0176301542790644E-005  -2.4084297533967939E-004  -3.8261961395018402E-003   19.666300933794265       -2.2902612046432624E-009
   8.3333333333333329E-002  0.68333333333333324        6.7434299735981280E-005  -3.4768861248202280E-004  -3.5955578079647230E-003   20.206397604706194       -2.7836211625650864E-009
   8.3333333333333329E-002  0.71666666666666656        8.5741738752938886E-005  -4.5775011054788198E-004  -3.3093239122863700E-003   20.699537841932539       -3.2641399028143780E-009
   8.3333333333333329E-002  0.75000000000000000        1.0425496662649595E-004  -5.6968307718668746E-004  -2.9697363314744479E-003   21.134893918995505       -3.7204112967453851E-009
   8.3333333333333329E-002  0.78333333333333333        1.2198498942974657E-004  -6.8130286115837676E-004  -2.5808483945420789E-003   21.498747274488121       -4.1412899984272222E-009
   8.3333333333333329E-002  0.81666666666666665        1.3779477198194403E-004  -7.8876165616399534E-004  -2.1493977790757539E-003   21.773895757007377       -4.5163157744859683E-009
   8.3333333333333329E-002  0.84999999999999998        1.5040934103490065E-004  -8.8463591449893593E-004  -1.6862547366426257E-003   21.939375165708935       -4.8361131141372304E-009
   8.3333333333333329E-002  0.88333333333333330        1.5845709156563670E-004  -9.5371854867515521E-004  -1.2089558581082937E-003   21.971809934702257       -5.0927465161665353E-009
   8.3333333333333329E-002  0.91666666666666663        1.6059024735621714E-004  -9.6413870150537377E-004  -7.4616641243428869E-004   21.852241309493181       -5.2800151490589586E-009
   8.3333333333333329E-002  0.94999999999999996        1.5578795976324992E-004  -8.4900995196496916E-004  -3.4523202221447408E-004   21.588751563673242       -5.3936734974169287E-009
   8.3333333333333329E-002  0.98333333333333317        1.4399177598821905E-004  -4.6860403535059676E-004  -8.3804330372858532E-005   21.280583934161282       -5.4315692239043090E-009
  0.11666666666666665        1.6666666666666663E-002   3.0142890127937135E-004   3.3190744454929900E-004  -6.9352479995262703E-005   8.6902518418458587        2.6216072819551517E-009
  0.11666666666666665        5.0000000000000003E-002   2.6224968791059046E-004   7.2539955044010371E-004  -2.8788903249247415E-004   8.8097948501052432        1.7640025447296370E-009
  0.11666666666666665        8.3333333333333329E-002   2.2569170699307973E-004   9.2986665603383609E-004  -6.2896743204718148E-004   9.1161890187072245        1.7739096667274135E-009
  0.11666666666666665       0.11666666666666665        1.9120124600144732E-004   1.0179362924665029E-003  -1.0320320096305342E-003   9.6288553047241905        1.7789462420508828E-009
  0.11666666666666665       0.15000000000000002        1.5867394567355549E-004   1.0419502564244848E-003  -1.4590481317838162E-003   10.328018792199529        1.7736461188633257E-009
  0.11666666666666665       0.18333333333333335        1.2827386428748539E-004   1.0325186083480907E-003  -1.8862509108948571E-003   11.169610555724308        1.7520436299683917E-009
  0.11666666666666665       0.21666666666666667        1.0028215164068722E-004   1.0036295969690068E-003  -2.2983093258180211E-003   12.102497895730616        1.7080214482351197E-009
  0.11666666666666665       0.25000000000000000        7.5010899053199850E-005   9.5962108732180237E-004  -2.6843906797311629E-003   13.081871807053178        1.6356618715712701E-009
  0.11666666666666665       0.28333333333333333        5.2764053603727920E-005   9.0085044071556443E-004  -3.0359714310101856E-003   14.075448786740319        1.5295807814785789E-009
  0.11666666666666665       0.31666666666666665        3.3819227816169835E-005   8.2702254762045870E-004  -3.3459694469258100E-003   15.063391860870057        1.3852239078016026E-009
  0.11666666666666665       0.35000000000000003        1.8413654767151849E-005   7.3853991533951097E-004  -3.6086065325743287E-003   16.035055363571253        1.1991090351562428E-009
  0.11666666666666665       0.38333333333333336        6.7293341481585619E-006   6.3667734064105431E-004  -3.8195019086976413E-003   16.985322634349867        9.6900366029772922E-010
  0.11666666666666665       0.41666666666666669       -1.1205978178540789E-006   5.2325273522371425E-004  -3.9757087839324906E-003   17.911878062741476        6.9404075585602354E-010
  0.11666666666666665       0.45000000000000001       -5.1010051554285827E-006   4.0019631573434461E-004  -4.0755985376800842E-003   18.813573681731707        3.7478931243228875E-010
  0.11666666666666665       0.48333333333333334       -5.2582154669302767E-006   2.6921280478926849E-004  -4.1186168477183671E-003   19.689540712302819        1.3306507588503602E-011
  0.11666666666666665       0.51666666666666661       -1.7192713169087259E-006   1.3160898928567868E-004  -4.1049876098928750E-003   20.538666256018011       -3.8680869618445968E-010
  0.11666666666666665       0.54999999999999993        5.3099939841468994E-006  -1.1708669502003042E-005  -4.0354465849609718E-003   21.359198288357931       -8.2037247698188431E-010
  0.11666666666666665       0.58333333333333326        1.5544924927874185E-005  -1.6009888175325527E-004  -3.9110694721612316E-003   22.148376815301098       -1.2806281694810462E-009
  0.11666666666666665       0.61666666666666659        2.8618023471682049E-005  -3.1296263306398770E-004  -3.7332344168034669E-003   22.902063564659539       -1.7593491715567344E-009
  0.11666666666666665       0.64999999999999991        4.4070672488518868E-005  -4.6948363765948558E-004  -3.5037362447596894E-003   23.614366359613843       -2.2470440144001236E-009
  0.11666666666666665       0.68333333333333324        6.1342258254947765E-005  -6.2836934573126256E-004  -3.2250533482974172E-003   24.277249271830993       -2.7332529815848883E-009
  0.11666666666666665       0.71666666666666656        7.9760011392334974E-005  -7.8759746129955120E-004  -2.9007593597736754E-003   24.880103545388693       -3.2069148014207682E-009
  0.11666666666666665       0.75000000000000000        9.8533985043781122E-005  -9.4411203918702839E-004  -2.5360708586376541E-003   25.409243748437092       -3.6567780054008736E-009
  0.11666666666666665       0.78333333333333333        1.1676200479022836E-004  -1.0933019353913057E-003  -2.1385310191752733E-003   25.847318894145005       -4.0718319115756740E-009
  0.11666666666666665       0.81666666666666665        1.3344956487910912E-004  -1.2278926391143976E-003  -1.7188518636444448E-003   26.172765187689929       -4.4417329779500303E-009
  0.11666666666666665       0.84999999999999998        1.4755132271791017E-004  -1.3355200585332700E-003  -1.2919800882822863E-003   26.359868107116014       -4.7572051315586394E-009
  0.11666666666666665       0.88333333333333330        1.5804893213143732E-004  -1.3936090644283191E-003  -8.7850463530344473E-004   26.381213483555161       -5.0103946894197726E-009
  0.11666666666666665       0.91666666666666663        1.6410416938994292E-004  -1.3590356161660858E-003  -5.0650699353557661E-004   26.217354381819131       -5.1951638112973653E-009
  0.11666666666666665       0.94999999999999996        1.6537789912649949E-004  -1.1480412422294668E-003  -2.1351353176622277E-004   25.885595353085868       -5.3073100046707733E-009
  0.11666666666666665       0.98333333333333317        1.6266545775222907E-004  -5.9846143598809329E-004  -4.6052890660103557E-005   25.514455145049457       -5.3447028404603192E-009
  0.15000000000000002        1.6666666666666663E-002   2.9233914380247359E-004   4.6636344474795669E-004  -6.5103432158227745E-005   9.4596495524556996        2.6611027526511621E-009
  0.15000000000000002        5.0000000000000003E-002   2.5468490112787585E-004   1.0187554461745705E-003  -2.7437862834727713E-004   9.5930172490758814        1.7880992329161183E-009
  0.15000000000000002        8.3333333333333329E-002   2.1915768609864387E-004   1.3097655977972167E-003  -6.0655494759669711E-004   9.9463892104256306        1.7956117686485085E-009
  0.15000000000000002       0.11666666666666665        1.8525889476704024E-004   1.4369704403424015E-003  -1.0024233405460919E-003   10.546103356815637        1.7979242417781593E-009
  0.15000000000000002       0.15000000000000002        1.5296541686822212E-004   1.4694361104536139E-003  -1.4219271012948656E-003   11.369572505518772        1.7896617330454001E-009
  0.15000000000000002       0.18333333333333335        1.2253949898006057E-004   1.4485036402737508E-003  -1.8381950901331322E-003   12.363637927212512        1.7649774159550491E-009
  0.15000000000000002       0.21666666666666667        9.4358200549521238E-005   1.3945063784337646E-003  -2.2329983728845851E-003   13.465819761518054        1.7179055365745821E-009
  0.15000000000000002       0.25000000000000000        6.8817415089865571E-005   1.3153662344389801E-003  -2.5935388358149353E-003   14.620973500796989        1.6427177465527798E-009
  0.15000000000000002       0.28333333333333333        4.6289514377779062E-005   1.2136821827346406E-003  -2.9105348679684968E-003   15.789146745025651        1.5342597834561156E-009
  0.15000000000000002       0.31666666666666665        2.7103278012357165E-005   1.0909710516464719E-003  -3.1773170008094799E-003   16.945678365042557        1.3882444247978465E-009
  0.15000000000000002       0.35000000000000003        1.1527916009091232E-005   9.4939455483560888E-004  -3.3894829724488316E-003   18.077347650088178        1.2014770888260640E-009
  0.15000000000000002       0.38333333333333336       -2.4242601603563693E-007   7.9194834114842700E-004  -3.5447131639691778E-003   19.177974688946605        9.7199891364863067E-010
  0.15000000000000002       0.41666666666666669       -8.1001215961228534E-006   6.2199496109899461E-004  -3.6425194595471407E-003   20.245106755565988        6.9914712040597404E-010
  0.15000000000000002       0.45000000000000001       -1.2028009179426612E-005   4.4269407264628253E-004  -3.6838696527277839E-003   21.277985806617806        3.8356169965430426E-010
  0.15000000000000002       0.48333333333333334       -1.2095799816477327E-005   2.5659878933509433E-004  -3.6707350708330309E-003   22.276389316488267        2.7196497874928949E-011
  0.15000000000000002       0.51666666666666661       -8.4521614746389847E-006   6.5507289987412834E-005  -3.6056486057880139E-003   23.239909971521083       -3.6661010251876069E-010
  0.15000000000000002       0.54999999999999993       -1.3170661993793909E-006  -1.2944043829804378E-004  -3.4913562020724050E-003   24.167408431646631       -7.9301641035117720E-010
  0.15000000000000002       0.58333333333333326        9.0216291119731727E-006  -3.2747942524338330E-004  -3.3306210715798061E-003   25.056524948354788       -1.2456127631080283E-009
  0.15000000000000002       0.61666666666666659        2.2205370557362513E-005  -5.2782534386259388E-004  -3.1262129726833329E-003   25.903216177041276       -1.7164796407148630E-009
  0.15000000000000002       0.64999999999999991        3.7796439179537262E-005  -7.2923952914442545E-004  -2.8810926744310848E-003   26.701308841266187       -2.1963784228862249E-009
  0.15000000000000002       0.68333333333333324        5.5266962380430172E-005  -9.2960380931988757E-004  -2.5987853800152412E-003   27.442059362666651       -2.6750515188384005E-009
  0.15000000000000002       0.71666666666666656        7.3990633326564506E-005  -1.1255191360022988E-003  -2.2839234261945885E-003   28.113699384200391       -3.1415993990285829E-009
  0.15000000000000002       0.75000000000000000        9.3243610687978785E-005  -1.3118791003438547E-003  -1.9429234179742774E-003   28.700950766749717       -3.5849022830131139E-009
  0.15000000000000002       0.78333333333333333        1.1222113556020791E-004  -1.4812562590682432E-003  -1.5847421277290809E-003   29.184544486592628       -3.9940590036702250E-009
  0.15000000000000002       0.81666666666666665        1.3007530228307675E-004  -1.6227331872720938E-003  -1.2216266925326443E-003   29.540959011543659       -4.3588182022102906E-009
  0.15000000000000002       0.84999999999999998        1.4597843810444967E-004  -1.7194445745829703E-003  -8.6973370748303193E-004   29.743106859751457       -4.6699812177031230E-009
  0.15000000000000002       0.88333333333333330        1.5922002796150045E-004  -1.7434809212113164E-003  -5.4941311025148612E-004   29.763996656142989       -4.9197575527348825E-009
  0.15000000000000002       0.91666666666666663        1.6936235604056245E-004  -1.6458545696620898E-003  -2.8472027886325505E-004   29.588387945168250       -5.1020580729005394E-009
  0.15000000000000002       0.94999999999999996        1.7652207656545390E-004  -1.3380139513450556E-003  -1.0092242497510698E-004   29.243593149388957       -5.2127135568083571E-009
  0.15000000000000002       0.98333333333333317        1.8189696166575034E-004  -6.6069332403971494E-004  -1.6178820819630032E-005   28.871011823285926       -5.2496104436128982E-009
  0.18333333333333335        1.6666666666666663E-002   2.8018762986508738E-004   5.8643044577534067E-004  -5.4963479517892118E-005   10.165705037681477        2.6999730910227948E-009
  0.18333333333333335        5.0000000000000003E-002   2.4428227444368438E-004   1.2899164067049535E-003  -2.3691609554324616E-004   10.305952366987990        1.8114267377744575E-009
  0.18333333333333335        8.3333333333333329E-002   2.0987499290406358E-004   1.6670600222376763E-003  -5.3319504106885934E-004   10.688312604770246        1.8166108131656422E-009
  0.18333333333333335       0.11666666666666665        1.7662678463369595E-004   1.8338342994791801E-003  -8.9148481125611882E-004   11.345804119445154        1.8162881910283035E-009
  0.18333333333333335       0.15000000000000002        1.4464875210541477E-004   1.8732622824341070E-003  -1.2726709614741588E-003   12.255156281376051        1.8051533184904045E-009
  0.18333333333333335       0.18333333333333335        1.1432393375786981E-004   1.8368003580004435E-003  -1.6485257433889648E-003   13.357229133147609        1.7774543295545620E-009
  0.18333333333333335       0.21666666666666667        8.6133790992578630E-005   1.7517252795995063E-003  -1.9992379630684059E-003   14.581020374811924        1.7273551339291870E-009
  0.18333333333333335       0.25000000000000000        6.0558692297700678E-005   1.6306707162830137E-003  -2.3112207708598058E-003   15.862872578225391        1.6493031419761994E-009
  0.18333333333333335       0.28333333333333333        3.8033338766723231E-005   1.4796634408007043E-003  -2.5755103725387035E-003   17.155952581910665        1.5383776284100259E-009
  0.18333333333333335       0.31666666666666665        1.8925024042579253E-005   1.3030179601406394E-003  -2.7867563087334260E-003   18.430927131412030        1.3905896876706403E-009
  0.18333333333333335       0.35000000000000003        3.5172348213707247E-006   1.1053384092200905E-003  -2.9425810135825354E-003   19.671971988743465        1.2031001000133157E-009
  0.18333333333333335       0.38333333333333336       -8.0035116584965530E-006   8.9171088528808696E-004  -3.0430571480713278E-003   20.871921243533915        9.7432407194369963E-010
  0.18333333333333335       0.41666666666666669       -1.5553429019342673E-005   6.6713425001342825E-004  -3.0901526297244519E-003   22.028455355424892        7.0391027642141557E-010